150
Lattice="25.000000 0.000000 0.000000 0.000000 25.000000 0.000000 0.000000 0.000000 25.000000 " Properties=species:S:1:pos:R:3:forces:R:3 energy=-825.83614367 pbc="T T T"
H 23.5562 10.0383 11.9345 0.074231 0.15541 0.527287
H 0.62275 10.6242 11.7813 0.001951 0.313629 0.428152
H 24.9628 12.1882 11.5229 -0.199352 0.157165 0.189796
H 1.197 11.354 14.2404 -0.183749 -0.234064 -0.002898
H 2.64283 13.0752 12.2185 0.171647 -0.080868 0.130273
H 3.67963 10.9303 14.0022 0.205729 -0.681076 0.832883
H 5.16375 13.1435 12.7118 0.345097 0.797398 -0.609748
H 5.18002 11.4783 12.1009 -0.196618 0.333113 0.504685
H 6.60415 12.6838 14.586 -0.119557 -0.46959 -0.460677
H 7.77233 12.9424 12.3795 0.486345 0.518199 0.316468
H 9.2496 10.7594 14.1211 -0.178061 0.598681 -0.431076
H 10.2702 12.8553 12.1039 0.044531 0.091083 -0.175383
H 10.1724 11.0901 11.8399 0.047466 0.404292 0.213081
H 12.045 12.3764 13.9674 -0.257002 -0.517348 -0.267541
H 12.8169 13.083 11.8355 -0.112984 -0.274677 -0.345888
H 14.4988 10.6917 12.7958 -0.262983 0.212126 -0.036836
H 15.0186 12.7544 13.9042 0.063879 0.135137 -0.532535
H 14.8535 13.6945 12.393 -0.083446 0.178041 -0.011985
H 17.0221 12.602 11.514 -0.182792 -0.00642 0.025215
H 16.8665 10.7467 13.0956 0.220933 -1.110242 -0.217578
H 19.3663 12.1924 13.9603 0.264899 -0.167192 -0.382994
H 19.7467 12.5293 11.5032 -0.084359 -0.370202 0.497669
H 19.2954 10.8818 11.172 -0.17664 0.026063 0.141289
H 21.2255 9.98415 12.3292 0.219938 -0.018407 -0.305999
H 22.1984 12.1985 13.5579 -0.158935 -0.035797 0.241551
H 2.67005 11.3394 12.0997 0.234978 -0.624468 -0.724158
H 7.76713 11.3071 12.0717 0.144351 -0.289418 0.390464
H 12.5358 11.4444 11.1348 -0.555928 -0.173565 -0.977743
H 17.239 11.7266 14.427 0.065494 0.19014 0.00249
H 22.6862 12.5858 11.9072 0.046571 -0.152207 0.425629
H 1.14515 13.6106 14.9141 0.236866 0.203806 -0.908817
H 24.621 13.2518 14.3806 -0.673076 -0.53109 -0.036298
H 3.22085 13.8248 14.8151 0.40278 -0.763763 0.298447
H 4.69665 13.0678 15.4916 -0.242342 -0.071597 -0.573192
H 5.76128 10.4322 15.3269 0.366436 0.345129 -0.589394
H 7.53167 10.5099 15.2464 -1.224909 -0.200196 -1.242754
H 10.2909 12.4878 15.356 0.012025 0.40038 0.185224
H 8.56035 12.5744 15.6133 -0.314101 -0.448608 0.272968
H 12.498 9.63387 12.7994 -0.000283 0.096519 0.682076
H 10.923 9.71655 13.4854 -0.662865 -0.245675 0.241134
H 14.1529 10.4061 10.4523 0.134322 -0.141793 -0.385257
H 15.8652 10.8855 10.6652 0.092868 -0.347256 0.346301
H 18.5126 13.9833 13.0567 -0.033703 -0.237453 -0.2806
H 17.2189 14.0749 14.1796 -0.298132 0.36117 0.131561
H 18.8771 10.0215 15.004 -0.161007 0.273301 0.334736
H 20.4233 10.0186 14.1617 -0.09592 -0.09848 0.076236
H 22.6613 9.82432 14.2976 -0.37791 0.044275 0.174593
H 23.9352 10.8917 14.7989 0.4402 0.707916 1.17422
H 22.7692 10.8668 10.2991 0.134022 -0.105969 0.149617
H 21.3997 11.8794 9.85562 0.127254 -0.656656 0.633575
H 24.5264 14.6459 12.4535 -0.341538 -0.101806 0.344439
H 1.23103 14.6332 12.2008 -0.465053 0.028671 0.922703
H 3.48128 11.1859 16.3677 -0.102741 -0.464469 0.120904
H 1.9066 11.9768 16.145 0.352497 0.105914 0.008886
H 7.24482 9.21632 12.9428 0.218456 -0.129251 -0.249918
H 5.46847 9.4472 13.1585 0.595718 -0.399589 -0.115799
H 8.2797 14.4831 14.1586 -0.60166 -0.023171 -0.41493
H 10.0056 14.5044 13.7633 -0.581128 -0.120457 0.665881
H 11.8 10.5705 15.7214 0.492854 -0.498414 -0.554241
H 13.4401 10.4931 15.0122 0.110163 0.064245 0.222598
H 15.47 13.1851 10.0879 0.418537 -0.199042 -0.243214
H 13.8059 13.004 9.8214 -0.207796 -0.486726 -0.01042
H 15.9529 15.5906 12.7243 0.576062 0.026169 -0.488378
H 16.9845 15.2604 11.2414 0.003561 -0.244464 1.045062
H 19.1545 8.97358 12.1654 0.145717 -0.339164 -0.043881
H 17.7426 8.9463 13.1814 -0.35355 -0.328126 -0.066082
H 20.0739 9.9456 9.15018 0.243973 0.120665 0.487329
H 20.89 8.84045 10.2518 0.080378 -0.20275 0.347149
H 0.59277 9.0607 13.8126 -0.538386 0.07888 0.611748
H 24.1288 8.2045 13.3808 0.082081 0.176557 -0.08062
H 1.64705 15.9222 14.2904 -0.250123 -0.088927 0.525447
H 24.8057 16.0599 14.5896 0.768568 -0.202378 -0.047495
H 0.62653 16.7793 13.2577 -0.205054 1.729651 -1.422676
H 2.6838 12.4918 18.549 0.358477 0.020115 -1.19463
H 2.7216 13.921 17.51 0.386582 -0.178749 0.153302
H 4.22555 13.0836 17.9769 0.609049 -0.02501 -0.391053
H 7.20635 8.1085 15.2665 0.578331 -0.406833 0.298672
H 6.31665 7.09305 14.0513 0.137276 0.321142 0.234129
H 5.46373 8.133 15.2528 0.27691 -0.059746 -0.398562
H 9.42127 16.1862 15.5616 -0.085613 -0.761179 0.244789
H 10.4296 14.8865 16.2422 0.63217 -0.003772 0.096226
H 8.76497 14.8572 16.5961 -0.673217 -0.024948 0.240793
H 13.3894 7.9817 14.9604 0.540042 0.118909 -0.261642
H 11.6719 7.9799 15.1418 0.035442 0.196165 0.336399
H 12.7188 8.53647 16.5048 -0.003522 -0.436031 0.134064
H 14.0804 11.3065 7.97673 0.120019 0.339225 0.122425
H 15.808 11.1846 8.20852 0.004749 0.487133 0.16008
H 15.0864 12.7462 7.6287 0.138629 0.05351 -0.350031
H 19.0026 16.0639 12.5869 0.516126 -0.071447 0.077433
H 17.9213 16.6906 13.8885 0.078029 -0.459222 -0.237309
H 17.853 17.3624 12.2804 -0.003032 -0.114043 -0.078552
H 18.9804 6.68383 13.1024 0.000936 -0.560209 -0.381211
H 18.7211 7.23043 14.7633 0.416453 0.35072 -0.636244
H 20.3707 7.4261 13.9957 -1.10975 0.01429 -0.252987
H 21.5303 8.48658 7.81078 -0.334963 -0.005122 0.144047
H 22.9261 8.85013 8.76295 -0.336318 0.61891 -0.112175
H 22.1212 10.0823 7.73583 0.454816 1.376445 -0.791668
H 23.2456 7.91165 15.5975 0.697339 0.446658 -0.170071
H 24.5426 8.869 16.3572 0.190949 -0.522206 -0.463405
H 24.8152 7.25695 15.5714 1.161879 -1.069254 0.179393
C 23.6957 10.8064 12.7364 0.107995 1.041091 -1.229203
C 0.10828 11.4532 12.333 0.422401 -0.845891 -0.346002
C 1.13145 12.0342 13.3798 -0.489456 0.44408 -0.027162
C 2.58705 12.1392 12.8115 -0.471429 0.991385 -0.117002
C 3.78718 11.9865 13.784 0.281215 -0.584378 -0.289403
C 5.17948 12.1128 13.0258 -0.04046 -0.322629 0.053487
C 6.53008 11.881 13.7987 0.393472 -0.363854 0.995608
C 7.85955 12.0005 12.9366 -1.455616 -0.472183 -0.578273
C 9.21085 11.7902 13.6698 -0.278619 0.112953 -0.101278
C 10.3653 11.882 12.6044 -0.003835 0.188224 0.433455
C 11.8268 11.6762 13.1175 -0.311063 -0.606118 0.320087
C 12.8564 11.9887 11.9978 0.278536 0.319551 1.658516
C 14.3716 11.601 12.1709 -0.025521 -0.076049 0.096786
C 15.2036 12.7409 12.7975 0.90256 -0.446408 0.375795
C 16.7716 12.6929 12.5855 0.295815 2.079304 0.435685
C 17.4658 11.611 13.3506 -0.469313 -0.887347 0.071278
C 19.0022 11.3907 13.2742 0.267841 0.558889 1.259216
C 19.7815 11.4992 11.949 0.010564 0.587959 -0.614175
C 21.2611 11.0045 11.9009 0.275351 -0.128045 -0.167315
C 22.4471 11.7391 12.5956 0.010982 0.730708 -0.602663
C 0.61428 13.3746 13.9534 -0.336906 0.759194 0.499533
C 3.69138 12.8234 15.0669 -0.001487 1.070288 0.734255
C 6.58507 10.5143 14.5563 0.425722 0.908459 1.662138
C 9.33737 12.7706 14.8777 0.531821 -1.090809 -0.623635
C 11.8983 10.1689 13.5843 1.058065 0.924619 -0.624516
C 14.825 11.2189 10.7529 -0.178853 1.134948 -0.082063
C 17.4126 14.0401 13.0989 -0.4972 -0.673271 -1.020711
C 19.3322 10.0767 14.0149 0.019816 -0.75299 -0.884926
C 23.6829 10.1468 14.0845 -0.220324 -0.596492 -1.075363
C 21.682 10.9307 10.4124 -1.198692 -0.724278 -1.176804
C 0.4538 14.6536 13.0396 1.662113 -1.02081 -0.75354
C 2.99115 12.1594 16.2948 0.415092 0.047747 0.210851
C 6.4475 9.28635 13.6798 -1.101892 0.151418 0.438271
C 9.249 14.2299 14.5643 1.219897 0.804878 -0.686303
C 12.459 9.99808 14.9985 -0.378727 0.413267 -0.459641
C 14.7406 12.4211 9.78365 0.118094 -0.782182 -1.232253
C 16.9873 15.3246 12.3753 -0.015519 0.484882 0.651324
C 18.827 8.84385 13.2057 0.656135 0.146443 0.854332
C 21.0619 9.70037 9.606 0.2153 1.122235 -0.663267
C 24.5278 8.90905 14.1391 0.452354 -1.174868 0.023702
C 0.63828 15.924 13.852 -0.402908 -1.208634 0.993283
C 3.20953 12.9248 17.6312 -1.833173 0.332202 0.377594
C 6.36107 8.06142 14.5924 -0.728576 -0.132602 -0.278839
C 9.46022 15.0864 15.7988 0.431506 1.028035 -0.382056
C 12.5837 8.54772 15.418 -0.695399 -0.139122 0.403577
C 14.963 11.8983 8.30087 -0.407277 0.047606 1.089028
C 18.001 16.4082 12.8174 -0.976017 0.846071 -0.286946
C 19.2487 7.46708 13.795 0.472357 0.843095 0.765109
C 21.9568 9.29922 8.42142 0.224198 -1.986304 1.13437
C 24.3383 8.19548 15.4844 -1.608424 1.259368 0.431086
150
Lattice="25.000000 0.000000 0.000000 0.000000 25.000000 0.000000 0.000000 0.000000 25.000000 " Properties=species:S:1:pos:R:3:forces:R:3 energy=-824.96356373 pbc="T T T"
H 23.7351 10.0313 12.5163 -0.529521 -0.136878 -0.209413
H 0.61053 10.6956 11.9513 -0.138846 0.657286 0.240869
H 24.8834 12.3191 11.7007 0.300117 -0.366204 0.274035
H 1.16611 11.4378 14.3335 -0.346025 0.343713 0.483768
H 2.76602 13.1243 12.5399 -0.04892 -0.097224 -0.110392
H 3.76636 10.8167 14.2423 0.416209 0.542317 -0.43627
H 5.37044 12.9716 12.6828 -0.200284 1.376611 -0.418293
H 5.06599 11.4203 11.9964 -0.396958 -0.239813 -0.420258
H 6.64476 12.246 14.4276 0.158135 -0.541562 -0.176631
H 7.73122 12.613 12.3223 0.522776 -0.432781 -0.361193
H 9.32702 10.3318 13.7162 -0.184682 -0.512963 -0.102424
H 10.3651 12.7491 12.1576 -0.272079 0.193428 -0.325144
H 10.3454 11.0599 11.5622 -0.270476 0.083568 -0.228907
H 11.9424 12.0926 13.9315 0.095155 -0.349708 0.031134
H 12.642 13.1358 12.0662 0.134016 0.566012 -0.505177
H 14.4699 10.9112 12.747 0.60702 0.604293 -0.758051
H 15.1813 12.9697 13.8608 -0.940219 -0.038642 1.447408
H 15.0712 13.9105 12.3946 0.099137 -0.02233 0.057471
H 17.2715 12.889 11.7432 0.109429 0.516659 0.048338
H 17.2105 10.7665 12.5935 -0.344884 -0.806667 -0.734709
H 19.4669 11.8875 14.2596 0.129805 0.558101 0.764957
H 20.0458 12.8102 12.3484 0.105421 0.148235 -0.522071
H 19.2424 11.565 11.361 0.401714 0.08743 -0.365861
H 21.3776 10.0733 12.3206 -0.203142 -0.131122 0.169113
H 22.1534 12.2972 13.5527 -0.28607 0.290623 0.211377
H 2.67313 11.4639 12.0612 -0.275311 0.096816 0.588947
H 7.85575 10.8088 11.8678 -0.547766 1.091496 0.662625
H 12.6307 11.6981 10.9914 -0.297189 0.221284 0.142675
H 17.1131 11.2276 14.2519 0.064601 0.062746 -0.012717
H 22.8766 12.655 11.9666 -0.469235 -0.134714 0.303039
H 1.15162 13.8004 14.8459 0.199089 0.175311 0.741306
H 24.5459 13.4187 14.223 0.365215 0.119037 -0.055454
H 3.63851 13.7769 14.695 -0.175764 0.464148 0.170932
H 5.09475 12.9668 15.2778 -0.803152 -0.170999 0.108774
H 5.58133 10.1497 15.1471 0.471423 -0.168623 -0.167642
H 7.34036 9.75026 14.6667 -0.523694 0.355592 0.747641
H 10.2319 12.1623 15.2041 -0.484595 -0.065147 -0.106608
H 8.50204 11.7875 15.4721 0.034251 -0.609129 0.087636
H 12.3444 9.50933 12.3333 -0.129074 0.059151 1.191279
H 11.0856 9.49069 13.6014 -0.976154 -0.097254 -0.216245
H 14.5063 10.677 10.2852 -0.114327 -0.792033 0.008654
H 16.0722 11.2958 10.8556 0.76441 -0.405187 -0.254864
H 18.5533 13.8955 13.6646 0.322162 0.52025 0.425847
H 17.0098 14.1747 14.5647 0.145252 -0.330998 0.272219
H 18.8267 9.76612 14.8508 -0.581419 -0.025375 0.396222
H 20.3371 9.73223 14.2708 1.153641 -0.361607 -0.518179
H 22.7885 10.249 14.8686 -0.102929 0.173373 -0.317594
H 24.0256 11.4605 15.1617 -0.098672 0.510746 0.181088
H 22.6407 10.6719 10.1837 0.52638 0.27155 0.053584
H 21.3484 11.9427 9.96309 0.739036 -0.020199 0.13663
H 0.39405 14.5807 11.9902 -0.15946 -0.37687 -0.138297
H 1.85001 14.974 12.852 -0.386555 0.065461 0.288134
H 3.56263 11.2379 16.4029 0.1052 -0.422365 0.119595
H 2.18932 12.2646 16.1575 -1.095253 -0.064275 -0.56345
H 6.95804 8.84684 12.8029 0.174008 -0.405774 -0.502829
H 5.33764 9.37017 12.5419 -0.872976 0.22389 -0.661237
H 7.79428 13.776 14.167 -0.947703 -0.280771 -0.535749
H 9.44349 14.1146 13.7549 -0.25356 -0.216445 0.382317
H 12.4782 10.0954 15.4107 -0.395662 0.081647 0.167292
H 13.8948 10.1776 14.4783 -0.338084 -0.320858 -0.412486
H 15.5869 13.4716 9.91831 -0.25612 -0.020801 0.151419
H 13.8304 13.1265 9.70865 0.882821 -0.492863 0.121094
H 16.1831 15.6169 12.6003 0.024481 0.11796 0.375695
H 17.7433 15.3935 11.863 -0.025463 0.409499 0.681551
H 19.1517 8.89202 11.9818 -0.171301 -0.209507 0.062421
H 17.6791 8.79288 13.0192 0.785005 -0.194613 -0.097559
H 19.6523 10.0083 10.0095 0.758708 0.101056 0.137236
H 21.1001 9.00301 9.94383 -0.018006 -0.751054 0.042224
H 0.81521 9.98179 14.6076 -0.82982 -0.849114 0.169751
H 24.7385 8.6721 14.1806 -0.396788 -0.325132 -0.440337
H 0.2948 15.9415 14.6977 0.008162 0.191128 0.097614
H 23.9429 15.8297 13.636 -0.938985 -0.417695 -0.288698
H 0.25729 16.948 13.2189 -0.15324 -1.352084 0.254838
H 2.92638 12.6075 18.372 0.063201 -0.599742 0.898728
H 3.02242 14.0664 17.5161 0.401054 0.044121 -0.16194
H 4.58131 13.2032 17.8271 -0.336724 -0.163308 0.137721
H 6.35746 7.38855 14.6662 -1.459145 0.078593 -0.857159
H 5.51993 6.85141 13.1237 -0.120207 0.463485 0.52231
H 4.53762 7.71094 14.3957 0.377034 0.055715 -0.105407
H 8.65329 15.5537 15.6413 -0.102969 1.647373 -0.526938
H 9.78362 14.388 16.3281 0.416411 0.191619 0.172128
H 8.05202 14.1944 16.5023 0.187111 0.018699 -0.065515
H 13.2 7.78667 13.6566 0.069679 -0.641266 0.181152
H 12.3343 7.63895 15.2202 -0.865015 -0.195623 0.051829
H 14.014 7.8867 15.2326 0.646118 0.096464 0.16384
H 14.4776 11.4614 7.86306 -0.113738 -0.089765 0.012599
H 16.2017 11.7148 8.26189 -0.147229 -0.371948 0.203996
H 15.3604 12.9972 7.5427 -0.58379 -0.119951 0.33996
H 18.7663 16.3981 14.2418 -0.355824 -0.249382 -0.418108
H 17.1265 16.8685 14.5775 -0.405525 -0.078853 0.198812
H 17.9635 17.5652 13.2234 -0.11312 0.18607 -0.375967
H 18.8351 6.45036 13.0304 -0.36475 0.531127 0.272199
H 18.975 7.32078 14.6042 0.208804 -0.461222 0.676038
H 20.3241 7.15619 13.3916 0.85177 0.313755 0.419922
H 20.5891 9.17955 7.6932 0.079672 -0.010857 -0.511223
H 21.5958 10.6851 7.85228 1.347689 0.117546 -0.663057
H 19.8967 10.8599 7.85626 0.341992 -0.689971 0.104764
H 23.9355 8.80904 16.6998 -0.841743 -0.312607 0.648275
H 0.44113 9.79396 16.893 -0.569125 -0.244285 0.097684
H 0.58478 8.11908 16.3631 -0.770441 0.525987 -0.11332
C 23.7796 11.0102 13.0122 -0.900785 -0.90939 0.660876
C 0.11386 11.5531 12.4829 0.793894 -0.180143 -0.742282
C 1.11658 12.1347 13.4995 0.525583 0.095584 -0.51728
C 2.57394 12.1184 12.9685 1.351263 0.860847 -1.426577
C 3.89789 11.8561 13.8182 -1.389493 -0.567783 0.510403
C 5.14483 11.9622 12.9338 1.526631 -1.422077 0.63775
C 6.50854 11.4825 13.6278 -0.070417 -0.739128 0.560676
C 7.83779 11.5799 12.7168 -1.074644 -0.833626 -0.428154
C 9.21473 11.3721 13.4154 -0.276059 0.813975 0.467548
C 10.4098 11.6979 12.4532 0.423029 0.099472 0.746825
C 11.8735 11.4763 13.0109 -1.113021 -0.2912 0.478543
C 12.8789 12.0761 12.0021 0.69637 -0.138781 -0.148034
C 14.4641 11.8359 12.0834 -0.782779 -0.693607 2.496423
C 15.3418 12.93 12.8163 0.9455 -0.65658 -1.399424
C 16.9704 12.8376 12.8071 -1.244861 0.782455 -0.730661
C 17.5601 11.508 13.2767 0.306874 0.474973 1.223802
C 19.1171 11.2951 13.4329 -0.560584 -0.574567 -0.128092
C 19.9283 11.7258 12.207 0.30355 -0.024012 -0.293227
C 21.3594 11.1011 11.9259 -0.631504 -0.608626 0.166855
C 22.5013 11.8347 12.6289 1.138931 0.58078 -0.197778
C 0.62076 13.5222 13.947 -0.261745 -0.267244 -0.234346
C 4.00416 12.8083 15.0381 0.460825 -0.392057 -0.306641
C 6.32969 10.0707 14.3291 0.567885 0.803182 -0.855709
C 9.21668 12.1675 14.7376 0.308977 1.535412 -0.065694
C 12.0088 9.96984 13.3292 1.373402 0.539926 -1.242541
C 15.0264 11.5123 10.7355 -0.791492 1.262689 -1.02149
C 17.4836 14.0966 13.5783 -0.628895 -0.06558 -1.218012
C 19.3374 9.84376 13.8883 -0.823143 0.634905 0.921568
C 23.7767 10.6096 14.5292 0.119166 -0.362894 -0.242345
C 21.6167 10.9552 10.4129 -1.240593 1.615963 0.108495
C 0.7734 14.7346 13.0066 -0.08012 0.081131 -0.202765
C 3.25124 12.2698 16.2518 1.476011 1.130635 1.514706
C 5.99677 8.9916 13.293 0.239343 -0.203979 0.767083
C 8.78688 13.6533 14.5404 1.839664 0.783337 -0.122532
C 12.9051 9.6563 14.5022 1.244496 0.192381 0.864871
C 14.8657 12.6621 9.69319 -0.061107 0.310617 -0.167725
C 17.2437 15.4864 12.8692 0.948583 -1.140025 -0.29129
C 18.8029 8.73739 13.0206 0.177171 -1.243461 -0.388663
C 20.7308 9.99018 9.69087 -1.201771 -0.760322 -0.413656
C 24.8013 9.52939 14.8446 1.714007 0.098569 0.205554
C 0.01101 15.9038 13.6345 1.560904 1.679674 0.18279
C 3.50753 13.075 17.6004 -0.292344 0.207725 -1.827815
C 5.52704 7.6655 13.8964 1.522703 -0.596534 0.462318
C 8.8442 14.5334 15.8 -0.272239 -2.43651 0.647708
C 13.1176 8.1533 14.6895 0.314811 0.423869 -0.836874
C 15.1972 12.1734 8.27697 0.842115 0.557778 -0.334409
C 17.7905 16.6253 13.7486 0.497028 -0.105243 0.033894
C 19.274 7.32291 13.5674 -1.236198 0.748994 -1.546263
C 20.7256 10.1564 8.15075 -1.558338 0.622333 1.064194
C 24.9029 9.0171 16.3021 1.809806 0.51135 -0.729936
150
Lattice="25.000000 0.000000 0.000000 0.000000 25.000000 0.000000 0.000000 0.000000 25.000000 " Properties=species:S:1:pos:R:3:forces:R:3 energy=-824.62356923 pbc="T T T"
H 23.2062 9.87674 12.9136 -0.262493 -0.05544 -0.67044
H 0.37843 10.2351 12.4341 0.114623 -0.531818 -0.17239
H 24.7222 11.6412 11.6417 -0.312431 -0.463953 0.621925
H 1.14368 11.6746 14.3556 -0.144787 -0.396522 -0.048794
H 2.57179 12.9023 12.0812 -0.041815 0.342685 -0.587184
H 3.74745 10.8956 14.0374 -0.598085 -1.585231 0.716249
H 5.19325 12.8729 12.2409 -0.177952 -0.668062 0.943981
H 4.87034 11.2242 11.8393 0.076518 0.225844 0.645647
H 6.33635 11.8518 14.4267 -0.212346 0.093543 1.472147
H 7.64112 13.0153 12.8774 -0.339337 0.858219 -0.161521
H 8.88257 10.4186 13.7227 0.034358 -0.140216 0.103823
H 10.2073 12.6207 12.0817 0.246553 -0.673566 0.393134
H 10.2372 10.8721 11.7417 -0.31033 0.468682 0.445276
H 11.9447 12.0847 13.9499 -0.142813 0.11763 0.805465
H 12.626 12.8766 11.8489 -0.122285 0.53734 -0.037422
H 14.4377 10.441 12.1891 -0.360585 0.408186 0.018371
H 14.8822 11.7647 14.1077 -0.276448 -0.228728 0.191733
H 14.4193 13.2099 13.2769 0.96421 -0.169127 -0.007386
H 16.8514 12.6805 12.0385 -0.155343 0.403478 -0.834717
H 17.2622 10.5993 12.5658 -0.212074 -0.759673 -0.602424
H 19.1076 12.1069 14.4647 -0.202565 -0.497757 -0.932155
H 19.637 12.8536 12.2393 0.03356 0.502074 0.096639
H 19.2984 11.367 11.4696 -0.506758 -0.366512 -0.337648
H 21.2035 10.2687 12.2947 0.241033 -0.449388 0.281662
H 21.8769 11.8196 14.2564 -0.634453 0.063059 1.497182
H 2.31239 11.1144 11.9025 0.515372 0.759512 0.409104
H 7.59958 11.6608 11.7382 0.334429 0.116824 0.167475
H 12.2441 11.3374 11.0834 1.126813 0.383509 0.775104
H 16.8863 10.8063 14.2463 0.372464 -0.306832 0.248574
H 22.5625 12.9058 13.1021 0.218619 -0.715802 -0.046728
H 1.2752 13.9587 14.2031 0.553684 0.536703 0.773109
H 24.5558 13.5056 14.1459 0.409141 -0.247715 0.402986
H 3.19087 13.8145 14.556 -0.708177 0.744876 -0.702033
H 4.76167 13.2268 14.8094 0.042655 -0.076296 0.22614
H 5.52476 9.49464 14.3064 0.265656 0.537854 -0.619471
H 7.22428 9.48372 14.1583 -0.482486 0.634547 -0.664105
H 10.1415 11.7431 15.3985 -0.641951 0.212627 -0.925732
H 8.42862 11.9456 15.4602 -0.255399 0.441982 0.270527
H 11.9386 9.34498 12.5407 -0.17279 0.660565 0.095245
H 11.0474 9.46044 13.9539 -1.573529 0.122012 0.591091
H 14.326 11.2405 9.84117 -0.244533 -0.058011 0.277566
H 15.8553 11.4694 10.6231 0.127339 0.299081 0.01082
H 18.0118 13.8447 13.9701 0.556521 0.051907 -0.263661
H 16.5279 13.7382 14.8139 -0.046454 -0.107916 0.233364
H 18.8407 9.98571 15.2663 0.801971 -0.39842 -0.913315
H 20.5161 10.2131 14.6416 -0.252678 0.163733 -0.069111
H 22.9713 9.95221 15.2512 0.189586 0.200215 -0.294607
H 24.1405 11.2014 15.3696 0.71277 -0.169008 0.270747
H 22.8649 11.7095 10.8474 -0.188587 -0.113094 -0.034861
H 21.4434 12.5777 10.3224 -0.204853 0.401786 0.614166
H 24.343 13.8937 11.9078 0.294771 0.233849 -0.152583
H 1.01555 14.435 11.6591 0.006859 -0.019452 0.113066
H 3.77706 11.5452 16.4374 1.074771 -0.912239 0.437276
H 2.27633 11.9047 15.8237 -1.448488 -0.242415 0.306315
H 6.70983 9.49557 11.4743 0.666891 -0.017504 -0.072231
H 5.18054 9.04775 11.9743 -1.147486 -0.14812 -0.215556
H 8.76348 14.3361 14.3421 -0.101934 -0.302459 -0.511312
H 10.4938 13.9625 14.3399 0.249398 -0.042092 -0.355783
H 12.8388 9.16273 15.3406 -0.256177 0.005502 0.095907
H 13.8548 10.1762 14.3341 -0.429027 -0.58146 0.124303
H 14.8077 14.0101 11.0572 -0.21234 0.685062 0.737598
H 13.7819 13.38 9.69393 -1.352991 0.743703 0.049698
H 15.3287 15.1418 13.1919 -0.207426 -0.240783 -0.10705
H 16.7497 15.0491 12.1089 -0.318919 0.356191 0.165035
H 19.8401 9.04927 12.4642 0.376931 -0.193099 -0.046392
H 18.3754 8.49299 13.166 0.869462 0.188698 0.654339
H 20.2352 10.6121 9.83062 -0.652698 -0.021914 -0.290178
H 21.5427 9.52556 10.1341 0.12526 0.476056 0.365897
H 0.85367 9.28235 14.3281 -0.925295 0.114803 0.924604
H 24.4559 8.27519 14.3156 -0.597272 -0.290738 -0.439833
H 0.6205 16.3851 13.1702 0.126505 0.024356 -0.27955
H 24.1234 15.7611 13.7125 -0.370608 -0.040434 -0.520002
H 24.3417 16.2464 11.972 -0.976349 1.100306 -1.061655
H 2.79122 13.0729 18.155 0.091285 0.562831 -0.902865
H 2.58407 14.3672 16.8163 -0.234052 -0.417995 0.227272
H 4.16344 13.8093 17.2686 0.406299 0.198186 0.327722
H 7.54814 7.37527 13.1462 -0.618812 0.716609 -0.102289
H 6.66845 6.99462 11.6665 -0.380365 0.352288 0.715013
H 5.70295 7.21589 13.2352 1.255561 -0.135015 -0.566941
H 9.99227 15.3617 16.2846 -0.465667 -0.56605 -0.217203
H 10.2994 13.7924 16.8867 1.037114 -1.042269 0.798002
H 8.67751 14.2943 16.7973 -1.392978 -0.063665 0.436018
H 13.9676 8.27197 12.6201 -0.048508 0.143972 -0.36066
H 13.0263 7.2923 13.7541 0.270035 -0.236284 -0.039597
H 14.6708 7.91521 14.1676 0.314885 -0.351532 0.388928
H 15.6982 12.9182 8.29598 0.1079 -0.158622 0.644627
H 16.7677 13.6337 9.57517 0.252354 -0.120925 -0.017265
H 15.5548 14.5639 8.68657 0.156383 0.705897 -0.045672
H 17.9605 16.5619 13.5156 0.780224 0.268281 -0.066878
H 16.9066 16.357 14.9236 -0.133798 0.141115 -0.320389
H 16.3346 17.249 13.4406 0.093519 0.072834 0.224052
H 20.1992 6.769 13.2999 0.223632 -0.296032 -0.168284
H 19.7698 7.11102 14.9773 0.059379 0.569859 -0.481288
H 21.262 7.83508 14.2829 -0.306221 -0.120549 -0.134567
H 21.1695 10.1187 7.67158 -0.296079 0.160899 -0.195008
H 22.8506 10.1701 8.18676 -0.914369 0.707266 0.405303
H 21.9283 11.7235 8.04359 -0.072622 0.17173 -0.338669
H 24.0345 8.57057 16.89 0.921266 -0.023754 -1.05929
H 0.53368 9.43837 16.8874 0.556395 0.66702 0.314084
H 0.5779 7.78791 16.3989 0.392576 -0.836925 0.041808
C 23.5593 10.8053 13.3705 -0.515012 0.541607 -0.502192
C 24.8543 11.1597 12.6544 1.499974 1.490975 -1.315736
C 0.96301 12.0551 13.3399 0.414072 -0.315667 0.347557
C 2.40684 11.9811 12.6255 -0.757309 -1.225808 0.577672
C 3.66664 11.8324 13.5569 0.414931 2.001143 -0.322451
C 5.01737 11.8667 12.7582 -0.114748 0.525669 -2.040186
C 6.31172 11.3684 13.4785 0.314715 0.974968 -1.338566
C 7.63755 11.9425 12.8103 0.206869 -1.299054 -0.115328
C 8.98867 11.4826 13.4821 1.15737 -0.028907 0.034117
C 10.2828 11.6106 12.596 -0.737259 0.684642 -1.894095
C 11.7212 11.4124 13.1294 0.389955 -0.468406 0.135891
C 12.7448 11.8066 12.013 -1.98029 -0.53302 -0.830196
C 14.2343 11.5387 12.0727 0.767507 -2.311488 -2.053202
C 15.0041 12.2557 13.1349 0.319623 1.321704 1.288081
C 16.5721 12.4905 13.068 -0.464443 1.27371 -1.236071
C 17.4085 11.2732 13.3922 -0.435917 -0.825485 1.077586
C 18.9204 11.3211 13.6512 0.981461 2.168767 0.17874
C 19.7424 11.7782 12.3685 0.198139 -0.132184 1.129681
C 21.229 11.353 12.2685 0.721788 0.885556 -0.979654
C 22.3135 11.8294 13.2942 0.42528 -0.373655 -0.97584
C 0.52522 13.4866 13.6062 -1.058257 0.316668 -0.82857
C 3.71147 12.8976 14.7258 1.092942 -1.236665 0.37598
C 6.31941 9.86918 13.5844 0.142618 -1.465189 2.000623
C 9.27799 12.2089 14.8139 0.034609 -0.522071 0.922754
C 11.8805 9.93677 13.4979 1.008014 -1.560296 -0.992653
C 14.8148 11.8311 10.6329 -0.083198 0.679939 0.933048
C 16.9429 13.7755 13.7921 -0.880843 0.727299 1.225741
C 19.4691 10.0728 14.3085 -0.810335 -1.083503 0.987439
C 23.9116 10.3164 14.7578 -1.6521 0.258127 0.969051
C 21.7608 11.6431 10.8095 0.624093 -0.369144 0.131108
C 0.20654 14.3885 12.4086 -0.459009 -0.835597 -0.347001
C 3.1983 12.3656 16.0933 0.127958 1.331252 -1.103132
C 6.19188 9.03222 12.3178 1.062959 0.592474 0.256768
C 9.54152 13.7159 14.8046 -0.450945 0.717555 1.838396
C 13.0715 9.36719 14.289 1.578649 1.687077 0.005801
C 14.7009 13.3482 10.2302 1.373606 -2.763688 -1.273198
C 16.4209 15.1018 13.1717 0.680482 -0.429748 -0.334878
C 19.4409 8.78798 13.4512 -1.114685 -0.578175 0.318872
C 21.3183 10.577 9.83725 0.534189 -1.249496 -1.568234
C 24.8469 9.12845 14.8595 1.325378 0.278864 -0.291545
C 24.7673 15.7844 12.8116 1.23667 -0.610368 1.801887
C 3.13657 13.4672 17.1512 -0.148648 -0.503872 0.355895
C 6.58584 7.60387 12.6152 -0.75613 -1.653785 -0.350786
C 9.60177 14.3063 16.2833 1.014963 1.017598 -2.054157
C 13.7317 8.13355 13.6748 -0.800236 0.11793 0.084046
C 15.7552 13.611 9.16764 -0.090784 0.318904 -0.701047
C 16.9386 16.4107 13.816 -0.526263 -0.879542 0.061015
C 20.2106 7.55918 14.0495 -0.396757 0.70186 0.091968
C 21.836 10.6758 8.33134 0.834753 -0.624583 1.331669
C 0.01735 8.69642 16.3033 -1.253108 0.210738 0.88591
180
Lattice="25.000000 0.000000 0.000000 0.000000 25.000000 0.000000 0.000000 0.000000 25.000000 " Properties=species:S:1:pos:R:3:forces:R:3 energy=-991.05878783 pbc="T T T"
H 23.5172 10.3138 11.3666 0.126499 0.265877 0.474831
H 0.66845 10.8996 11.5378 -0.014586 -0.135371 0.006066
H 24.9542 12.4281 11.7853 -0.283975 2.049001 -0.892583
H 0.91845 10.6392 13.9847 0.095511 -1.066037 0.538849
H 2.58115 12.998 12.9208 -0.249874 -0.708029 0.180294
H 3.55695 10.5033 14.5496 0.139982 1.028706 -0.357592
H 5.15017 12.7842 13.0269 -0.307563 -0.209879 0.270134
H 5.02597 11.1286 12.5145 0.225922 0.181056 0.262089
H 6.5771 12.0737 14.9256 -0.031369 0.692897 1.310814
H 7.59467 12.9097 12.9979 0.442218 -0.181388 0.01519
H 9.2284 10.5181 14.1424 -0.303789 -0.110854 0.042679
H 10.1877 12.7065 12.2763 0.078187 -0.015338 -0.349288
H 10.1098 10.9725 11.9027 -0.31037 -0.439758 -0.759629
H 12.0226 12.3065 13.8473 -0.022989 -0.401188 -0.064484
H 12.506 12.7788 11.5236 -0.273695 0.813677 0.119339
H 14.4406 10.5421 12.2054 -0.004643 0.040128 -0.223137
H 14.6629 12.5128 13.7659 0.535385 -0.235776 -0.24272
H 14.819 13.5272 12.3679 -0.068194 0.033253 0.155266
H 16.926 12.7565 11.6164 -0.133016 -0.248548 0.431506
H 16.9576 10.4787 12.2271 0.043359 -0.215361 0.215036
H 19.2082 11.6945 14.0194 -0.562811 -0.656941 -0.97824
H 19.405 12.5625 11.8301 0.306665 -0.391042 -0.272811
H 19.1316 10.9816 11.0272 0.168269 0.366184 0.198867
H 21.3261 10.1174 11.4595 -0.212681 0.573126 -0.087976
H 22.0468 11.578 13.58 -0.21102 -0.077878 0.758067
H 2.5835 11.3708 12.2347 0.186227 0.072047 0.253519
H 7.59473 11.3814 12.2269 0.127179 -0.530433 -0.696298
H 12.1956 11.1989 11.0005 0.533898 -0.25855 0.32776
H 16.763 10.7224 13.9867 0.71293 0.508605 -0.755987
H 22.5346 12.7424 12.396 0.104191 -0.577121 0.011915
H 0.7555 12.3661 15.5908 0.225509 -0.0086 0.327082
H 24.219 12.1566 14.7839 0.607595 0.227758 -0.171953
H 2.70187 12.977 15.5626 0.764274 -0.29107 -0.243765
H 4.26122 13.5082 14.918 0.020674 -0.091027 0.084199
H 5.61263 9.8256 15.1506 0.034234 -0.227974 -0.301488
H 7.32383 9.86753 15.2097 0.463318 -0.015352 0.191953
H 10.3776 12.1896 15.3867 0.748547 -0.154148 0.395508
H 8.69942 12.326 15.7689 0.003288 0.281934 -0.286922
H 12.1258 9.34308 12.9969 -0.458902 0.329108 0.426516
H 11.1129 9.88775 14.4454 0.477027 -0.107005 -0.590802
H 14.2067 10.8986 9.7284 0.085367 -0.090862 0.602531
H 15.8225 11.2917 10.3317 -0.374355 -0.012501 0.180707
H 18.3294 13.5823 13.4529 -0.493002 -0.086189 0.197702
H 16.9692 13.4223 14.6379 0.251756 -0.084535 -0.827693
H 18.6635 9.4234 14.6456 0.489942 0.246069 -0.55279
H 20.2632 9.5335 13.7974 0.107414 -0.090686 0.232536
H 22.6184 9.11293 13.273 0.562854 0.663298 0.331039
H 23.7293 9.98663 14.4173 -0.038154 -0.263997 -0.550378
H 22.6469 12.0724 10.1641 -0.078928 0.116272 0.612074
H 21.1786 12.9941 10.4785 -0.282012 0.594764 -0.329293
H 24.7411 14.1544 13.2826 0.56589 -0.095495 0.960188
H 1.2101 14.4155 14.2765 1.106259 0.344428 -0.304354
H 5.40017 11.8128 16.5143 -0.62313 0.032937 0.228928
H 3.71638 11.3666 16.9825 -0.349276 -1.10863 0.546919
H 7.55545 9.05828 12.7686 -0.961688 0.183815 0.657244
H 5.77517 8.98452 12.7372 -0.290489 -0.139138 -0.262105
H 8.58703 14.4084 14.1483 1.222699 -0.832268 -0.027773
H 10.4562 14.1732 13.9158 -1.225699 -0.380697 0.325887
H 13.1466 10.6742 15.5495 -0.610418 0.330108 1.014246
H 14.0886 10.545 14.2291 0.638393 -0.296951 -0.656562
H 15.2687 13.6995 10.1667 -0.316646 0.034524 -0.261256
H 13.5713 13.2836 9.63878 1.22534 -0.159029 -0.259238
H 15.7407 15.2481 13.4817 0.319395 -0.173808 0.281075
H 16.7498 15.1771 12.1222 0.674834 0.275721 0.117013
H 19.329 8.6246 11.7355 -0.464803 -0.065588 0.41951
H 17.6684 8.59533 12.4324 0.226618 -0.019526 0.002722
H 20.0709 10.9916 9.11265 -0.101233 -0.079606 -0.369485
H 21.7523 10.3636 8.91835 -0.607857 0.546797 0.24968
H 0.63333 8.90917 12.9924 -0.107797 -0.298845 -0.090765
H 24.4181 8.0049 12.1326 -0.450336 -0.222487 -1.186546
H 24.9376 14.8276 16.3166 -0.338201 -0.081703 0.064905
H 23.4196 14.4782 15.3632 -0.520513 -0.395219 0.58581
H 3.23258 13.6826 17.7965 0.184501 -0.286536 -0.402362
H 4.85102 14.2293 17.3445 -0.241955 -0.906322 -0.02446
H 5.96282 7.11543 14.6352 0.370869 0.54317 -0.639741
H 7.69252 7.4753 14.5861 -0.168146 -0.135088 -0.142718
H 10.7198 14.5014 16.2778 0.79003 -0.209744 0.467044
H 9.00323 14.5445 16.598 0.257737 0.636504 -0.365887
H 13.8599 7.99428 14.2648 0.322224 -0.084223 -0.29565
H 12.5353 8.10695 15.3836 0.452386 0.510599 -0.227153
H 14.7416 11.8455 7.78563 0.24824 0.92867 -0.147068
H 16.2902 12.5839 8.21862 -0.26554 0.097761 0.096212
H 17.2674 17.1151 13.8348 0.324924 -0.246579 -0.528346
H 18.7113 16.0389 13.7021 0.250232 0.096321 -0.258856
H 20.0635 7.06497 13.4811 0.701938 -0.128632 0.780781
H 18.9567 6.26685 12.4708 -0.214641 0.573559 -0.215131
H 21.3408 11.6489 6.83368 -0.262853 -0.636769 -0.461328
H 22.4061 12.5431 7.8239 0.263271 0.487629 0.13561
H 24.9266 6.41672 13.8451 -0.017817 0.362404 -0.232634
H 23.5755 7.31217 14.4825 -0.691372 -0.151628 0.499196
H 23.6341 16.9306 15.5087 0.761089 -0.556945 -0.521804
H 23.8444 16.3097 13.8417 0.21221 0.018812 0.312953
H 0.2996 16.8022 14.7669 -0.40877 -0.169179 0.084105
H 5.73415 12.4201 19.0537 0.598369 -0.602779 -0.273926