40
Lattice="7.821210 0.000000 0.000000 -0.145292 7.981657 0.000000 -0.213611 -0.185348 8.176804 " Properties=species:S:1:pos:R:3:forces:R:3 energy=-317.08670645 pbc="T T T"
O 1.64939 1.81132 8.00408 1.031714 -0.183483 1.519702
O 1.84679 2.01976 4.21206 -0.164525 -0.170419 -0.554576
O 1.79676 5.71603 8.05577 0.633566 0.655942 4.99275
O 1.74074 5.90684 4.2858 0.600923 -0.157652 -3.301343
O 5.68348 1.8763 0.05674 -0.834253 -0.24785 -0.815579
O 5.69341 1.80429 4.07912 -0.183976 0.115789 0.569216
O 5.68121 5.86004 0.18784 -1.139419 0.827054 -4.134093
O 5.72608 5.95695 3.9377 -1.161191 -0.249841 2.571627
O 1.83949 0.12359 2.14432 1.273178 -6.171976 -0.535573
O 1.8016 -0.04042 5.98772 0.42844 -3.026287 1.114989
O 1.74719 3.95155 1.93225 0.661813 4.354787 -0.018668
O 1.70916 3.86423 6.1956 1.33286 1.015153 0.834212
O 5.72876 7.91861 1.94473 -1.425651 -0.076221 -0.060612
O 5.76262 -0.08387 6.082 -1.002688 -3.652747 1.268707
O 5.77403 3.88161 2.03477 -0.477417 0.801419 -0.091352
O 5.61912 3.68153 6.12649 -0.876205 3.084158 0.647966
O -0.07255 2.04377 2.07163 -5.996869 -0.151237 0.111247
O 7.56558 1.72369 6.09264 -1.034374 0.574496 0.081056
O -0.16509 6.13084 2.02249 0.087868 -0.892631 0.042575
O -0.14723 5.87801 5.97178 -3.03084 0.471729 1.733661
O 3.86132 2.06914 2.07467 0.941719 -0.313919 -0.442796
O 3.62743 1.88572 6.16994 3.123998 -0.16732 0.501852
O 3.61706 5.9237 2.03016 3.171432 0.666901 -0.165311
O 3.55386 6.0777 6.02583 3.392993 -0.303565 1.480837
Na 0.02717 3.95328 0.13731 -0.127754 -0.104569 -0.132464
Na 7.58323 -0.17524 8.09605 -0.051823 0.332236 0.337564
Ti 1.86166 1.70781 6.15989 -3.671138 3.744121 -0.01793
Ti 1.9009 5.88718 2.10685 -5.998759 0.11856 1.132494
Ti 1.68641 5.99287 6.39804 -2.25908 -2.131924 -6.110304
Ti 5.78639 1.90543 1.96356 -0.650797 1.719263 -0.143503
Ti 5.6641 1.83375 6.01038 2.935032 0.935937 0.022304
Ti 5.66703 6.02908 2.17023 3.384854 -1.277159 -1.722736
Ti 5.56653 5.94087 6.29654 1.71818 -0.091427 0.251168
Zr 1.73259 1.96566 2.08593 4.457828 1.091547 -0.805863
Ba 7.55922 7.88107 4.16462 0.590635 0.132124 -0.754755
Ba -0.17534 3.96536 4.13843 0.107269 -0.369305 0.225403
Ba 3.81221 -0.06564 4.13796 -0.678652 0.479704 -0.96519
Ba 3.64369 4.04543 4.11493 0.269444 -1.29262 0.251219
Bi 3.61722 7.64586 8.11437 0.892288 1.639385 1.041188
Bi 3.64385 3.72654 8.04441 -0.270626 -1.728154 0.040913
40
Lattice="7.901226 0.000000 0.000000 -0.146779 8.063315 0.000000 -0.215797 -0.187244 8.260459 " Properties=species:S:1:pos:R:3:forces:R:3 energy=-323.25561839 pbc="T T T"
O 2.13902 2.17856 0.00519 -0.178275 0.437101 0.218871
O 1.75645 1.92741 4.17923 0.01075 -0.154944 1.653689
O 2.07645 6.01051 0.13621 0.175253 0.462817 -1.335685
O 1.76276 6.1009 4.49425 -0.370971 -0.036983 -0.463477
O 5.6644 2.29836 0.10351 -0.163407 -0.254657 0.626644
O 5.84438 1.96445 4.50957 -0.643451 -0.031836 -1.087067
O 5.64125 6.3198 0.08008 -0.222885 -0.792444 0.897258
O 5.83244 5.91499 4.39832 -0.846271 0.800492 -0.414973
O 1.74844 7.93984 2.16042 -0.360544 0.302699 -0.276026
O 1.89873 0.04829 6.38293 0.252917 -1.429818 0.014317
O 1.88065 4.13571 2.32829 -0.525686 0.327772 -0.509328
O 1.85634 3.89804 6.23996 0.05315 0.799289 0.345905
O 5.66698 0.09076 1.87171 0.22419 0.12605 0.89868
O 5.86962 -0.07066 6.42434 -1.084585 0.247318 0.137678
O 5.63348 4.07609 2.19593 0.026367 0.946367 -0.388053
O 5.69129 4.01331 6.43814 -0.669206 -0.684588 0.180948
O 7.517 2.09428 2.19381 0.887113 -0.418291 -0.102935
O -0.19697 1.99079 6.43388 0.903523 -0.013185 -0.024257
O 7.66945 5.97027 2.26277 -0.346466 0.503968 -0.723859
O 7.61473 5.7708 6.42434 1.297253 0.67601 0.157074
O 3.74165 2.03158 2.31594 2.776641 -0.061157 0.385097
O 3.81291 2.06286 6.46451 -0.442757 -0.336396 -1.062163
O 3.81104 6.10019 2.27625 -0.473598 0.214529 0.087299
O 3.68357 5.86492 6.32408 -0.128959 1.232682 0.783082
Na -0.04112 4.13216 0.14155 -0.118842 -0.105659 -0.195926
Na 7.69136 0.1176 0.27841 -0.122937 -0.128528 -0.251096
Ti 1.70511 1.87567 6.30844 -0.530021 0.865525 0.388983
Ti 1.94808 6.06056 1.90267 0.136174 -0.338633 1.726006
Ti 1.67622 5.88542 6.23781 -1.023569 -1.048392 0.071068
Ti 5.66357 1.98533 1.94048 1.207528 0.272037 -0.772622
Ti 5.84265 1.87805 6.27918 0.151222 -0.591027 0.762257
Ti 5.81693 5.99061 2.01081 -0.53832 -0.935176 -0.70846
Ti 5.74307 5.85106 6.23868 0.922334 0.789231 0.502327
Zr 1.86413 2.07202 2.10946 -2.221041 0.002258 -0.766411
Ba -0.10653 -0.00248 4.08241 -0.341644 -0.284764 0.251231
Ba 7.63636 4.05068 4.20802 0.601291 -0.629283 -0.409781
Ba 3.78303 0.0 4.28841 0.399623 -0.237148 -0.622115
Ba 3.7749 4.01625 4.21422 -0.018183 0.013853 -0.2375
Bi 3.62522 7.5806 8.05852 1.27977 -0.211529 0.375348
Bi 3.73459 3.65315 7.95623 0.066517 -0.295561 -0.11203
40
Lattice="7.858730 0.000000 0.000000 -0.145989 8.019947 0.000000 -0.214636 -0.186237 8.216030 " Properties=species:S:1:pos:R:3:forces:R:3 energy=-322.79556757 pbc="T T T"
O 2.07041 1.92664 0.05149 -0.086232 0.706598 -2.18668
O 1.78209 2.054 4.24168 0.017409 -0.089647 -0.302443
O 1.64925 6.07178 8.09917 0.065378 0.174248 2.068529
O 1.80787 6.03717 4.10797 -0.046385 -0.608022 0.657965
O 5.52566 2.12888 0.0027 0.435468 0.467918 0.036483
O 5.81867 2.03285 4.26877 -0.891758 0.069982 0.164949
O 5.79283 6.27336 0.07021 -0.361302 0.064753 0.550672
O 5.76298 5.98499 4.3812 -0.726963 0.237872 -1.131716
O 1.49217 -8e-05 2.04783 0.932548 0.156462 -0.302462
O 1.85301 -0.03943 6.20422 -0.137864 1.373923 -0.379512
O 1.86742 4.24291 1.83706 -0.314028 -1.183571 0.276731
O 1.87405 3.9721 6.33896 -0.069352 0.052141 -0.069477
O 5.98198 0.01791 2.08633 -1.076697 1.548644 -0.103659
O 5.79701 0.12904 6.31908 0.036901 -2.348119 -0.332438
O 5.48511 4.24727 1.93042 -0.078051 -2.13911 0.34768
O 5.4928 4.11589 6.38121 0.091701 -0.233274 0.352345
O 7.50172 2.34367 2.02945 1.710876 0.277547 -0.119771
O 7.62723 2.16836 6.17216 0.578621 -0.315361 0.974282
O 7.61223 5.91676 2.28035 0.051719 -0.070589 -0.553147
O -0.11041 6.06285 6.24631 -2.309549 -0.529341 -0.333547
O 3.80491 2.03243 2.08337 0.611847 -0.102923 0.611749
O 3.6956 2.05089 6.19447 0.429618 0.509382 0.216842
O 3.68741 6.23743 1.87911 -0.064849 0.153625 1.133509
O 3.66925 6.11093 6.34252 0.695285 0.212397 -0.005096
Na 7.5548 3.79721 7.90818 0.07115 0.103476 0.075968
Na -0.0634 7.78594 7.95184 -0.24816 0.044289 0.084285
Ti 1.82467 1.82652 6.22378 -1.402404 -1.081821 -0.584053
Ti 1.55836 6.01805 1.83585 0.912091 0.44612 0.519919
Ti 1.67243 5.81931 6.1677 1.070758 1.305936 -0.463343
Ti 5.79132 1.97055 1.82728 -1.268918 -1.627505 1.241875
Ti 5.75301 1.86601 6.1822 1.226809 1.186591 -1.627815
Ti 5.77241 5.95358 2.02899 0.011606 1.980663 -1.802123
Ti 5.69155 6.01531 6.19727 -0.490341 -0.293996 1.607493
Zr 1.77552 2.03425 1.94863 0.018357 -0.052812 1.144381
Ba -0.10186 -0.00764 4.17224 -0.036607 0.193156 -0.055273
Ba -0.16436 4.03628 4.09356 -0.254062 -0.753706 0.619622
Ba 3.78392 -0.00419 4.11116 0.037967 0.087355 0.119097
Ba 3.70843 4.08908 4.22594 0.256479 -0.634734 -0.769442
Bi 3.77196 7.59074 0.27967 0.593104 0.309903 -1.720961
Bi 3.77289 3.56998 7.95293 0.007829 0.401551 0.03858
40
Lattice="7.840942 0.000000 0.000000 -0.145659 8.001794 0.000000 -0.214150 -0.185816 8.197433 " Properties=species:S:1:pos:R:3:forces:R:3 energy=-323.02444021 pbc="T T T"
O 1.92378 1.99489 8.08137 -0.65988 0.051347 -1.077229
O 1.63861 2.116 4.026 1.138511 -0.091761 1.251788
O 1.81237 6.21738 0.0122 0.041618 0.181213 -0.328736
O 1.83995 6.12325 3.93539 -0.259054 -0.610394 0.257734
O 5.6002 1.91569 8.0445 -0.22497 0.602684 -0.234
O 5.79074 2.04051 3.89786 -0.472445 -0.073257 0.363508
O 5.70699 6.32615 0.00349 0.519774 -0.124799 1.553372
O 5.66038 6.05016 3.99143 -0.471852 -0.319005 -0.434299
O 2.23819 0.20424 2.10669 -0.408356 -1.375652 -0.823843
O 1.55238 -0.08436 6.07119 0.672717 1.484804 0.100101
O 1.53777 4.23119 2.05629 0.118204 -1.815937 -0.394015
O 1.8381 4.01498 6.19013 0.515574 0.91119 -0.099381
O 5.47488 0.10912 1.74982 0.785833 0.646191 1.142441
O 6.0773 0.03438 6.09459 -0.661389 0.644598 0.155171
O 5.67297 4.19187 1.83763 0.80419 -0.399931 0.277561
O 5.52161 4.106 6.35749 0.02607 -0.369883 -0.531747
O 7.67043 1.84499 1.97269 -0.431275 0.206324 -0.876857
O -0.11439 2.11022 6.04347 -1.32514 0.455907 0.331538
O 7.61618 6.35838 2.04195 -0.12039 -0.676011 -0.545515
O -0.2087 5.85684 6.02078 -0.648096 0.238338 0.957286
O 3.8864 2.40251 1.74297 1.04833 0.115915 0.718555
O 3.65807 1.91212 6.07477 1.047297 0.550667 -0.02972
O 3.72121 6.24478 1.91472 0.024439 -1.444743 -0.124759
O 3.69275 6.42033 6.29581 -0.013307 -1.070127 0.083143
Na 7.68702 4.26076 0.06041 0.002702 -0.192124 -0.075076
Na 7.81539 0.07157 0.09323 -0.032277 -0.035056 0.031905
Ti 1.72786 1.81629 6.03727 0.445828 -0.020782 0.19811
Ti 1.66309 5.95372 2.08182 0.305276 2.627761 0.907167
Ti 1.62682 5.94924 6.32511 0.241493 -0.830535 -0.163995
Ti 5.82779 1.88012 1.95763 0.307145 0.59019 -0.027106
Ti 5.90418 1.89516 6.18163 -0.393165 -1.072329 0.94468
Ti 5.68794 5.93852 2.15143 0.096817 0.914729 -0.882191
Ti 5.66909 6.02572 6.5138 -0.511835 -0.163403 -2.781307
Zr 1.91123 2.10607 1.94299 -1.825242 -0.304884 0.255774
Ba 7.72239 -0.05595 4.01488 0.446129 0.448212 0.368035
Ba 7.58144 4.11742 4.18246 0.616723 -0.71526 -0.300375
Ba 3.90614 -0.03207 4.21278 -0.453558 -0.267871 -0.302145
Ba 3.863 3.90366 4.05544 -0.659923 0.74011 0.735617
Bi 3.62907 7.66762 0.26724 -0.074843 0.657471 0.04296
Bi 3.69521 3.40741 7.96879 0.442329 -0.093908 -0.644151
40
Lattice="7.840397 0.000000 0.000000 -0.145649 8.001237 0.000000 -0.214136 -0.185803 8.196863 " Properties=species:S:1:pos:R:3:forces:R:3 energy=-323.17644523 pbc="T T T"
O 1.87602 2.14438 8.06837 -0.052753 0.241326 -0.92559
O 1.81445 2.14787 4.04357 -0.087624 -0.792097 -0.636441
O 1.57497 5.84259 8.16409 0.220746 0.524467 0.098533
O 1.71348 5.98264 3.96655 -0.337213 0.810439 -1.200841
O 5.59765 2.01663 8.04296 -0.635498 -0.659562 -0.318226
O 5.75694 2.15586 3.99628 -0.172635 -0.369026 -0.007237
O 5.36502 6.26601 8.16831 1.447868 -0.876983 -0.134767
O 5.5644 5.98691 3.8839 0.509375 -0.449735 -0.28371
O 2.13928 0.07182 1.84588 0.060059 -1.746166 0.136424
O 1.70065 0.11998 6.11867 0.131158 -0.893692 0.127923
O 1.81711 4.13204 1.97111 -0.460158 0.742864 0.10252
O 1.79435 4.09062 5.95183 -0.558359 0.537708 1.019031
O 5.69697 0.15688 2.15086 -0.739272 -0.2868 -1.111619
O 5.64025 0.00096 5.95628 0.411568 0.222289 0.325652
O 5.82189 4.02802 1.79478 0.337898 0.925871 0.27473
O 5.26648 3.9731 6.30659 1.308867 1.333896 -0.14343
O 7.67164 1.97772 1.81602 1.013941 0.035296 0.084614
O 7.63564 1.98383 6.07409 -0.9359 0.392869 -0.065499
O 7.58866 6.24969 1.9386 1.193739 -0.26565 0.176904
O 7.32544 5.88746 6.13845 2.228151 0.251577 -0.147682
O 3.96986 2.27345 1.71298 -0.206504 -0.34153 0.680566
O 3.73504 2.06554 5.95349 -0.31245 -0.538724 0.374201
O 3.83845 5.91116 1.77423 -1.08315 1.02127 -0.210122
O 3.64209 6.11081 6.08626 -1.570068 0.313115 0.486915
Na 7.44357 3.3689 7.92514 0.333757 0.536394 0.299877
Na 7.53201 -0.02924 7.97867 0.059266 -0.120971 0.080914
Ti 1.87833 1.96932 6.12903 -1.275185 -0.779416 -0.855496
Ti 1.62579 5.97017 2.09606 0.180099 -0.19461 -0.168277
Ti 1.61516 5.91971 6.41447 0.904579 -0.621367 -1.677733
Ti 5.91309 2.03468 2.16483 -1.795432 -0.612401 -1.223449
Ti 5.69224 1.82246 6.17514 0.78712 0.36731 0.472755
Ti 5.77484 5.87288 2.02502 -0.49822 -0.030691 0.439855
Ti 5.54214 5.88376 6.31738 -1.34065 -0.437565 -0.066883
Zr 1.87565 2.02886 1.89831 -0.321593 0.574154 0.984635
Ba 7.46709 7.8823 4.13545 0.802992 0.502863 0.45724
Ba 7.54699 3.96323 4.05129 1.288527 0.462399 1.171931
Ba 3.81967 0.01265 4.01731 -0.60947 -0.428156 0.99767
Ba 3.65217 4.07465 4.05259 0.161112 0.089444 0.471989
Bi 3.92652 7.69248 0.33931 -0.932683 0.665135 0.061406
Bi 3.76574 3.54094 8.18425 0.543996 -0.105544 -0.149282
40
Lattice="7.798487 0.000000 0.000000 -0.144870 7.958469 0.000000 -0.212991 -0.184809 8.153049 " Properties=species:S:1:pos:R:3:forces:R:3 energy=-322.89362646 pbc="T T T"
O 1.75648 1.9467 7.99485 0.351047 0.081009 -2.255388
O 1.82516 1.75601 3.80088 0.64166 0.705054 1.597802
O 2.10407 5.83374 8.05815 -0.05091 -0.938127 0.997084
O 1.80095 5.86092 3.8318 -0.679585 0.333312 -1.336025
O 5.64732 2.07303 8.04921 -0.405479 0.337382 -0.309424
O 5.70353 1.8526 3.85476 -0.559053 0.294962 0.630179
O 5.33372 5.646 8.03572 -0.465832 0.027301 0.445509
O 5.88229 6.02854 3.83912 -0.86825 -0.298224 0.398502
O 1.52859 7.85645 1.4462 1.202947 0.247762 0.715176
O 1.75197 7.75786 6.16242 -0.19306 1.000205 -0.163946
O 2.17243 4.08788 1.68011 0.07061 -0.003075 0.475161
O 1.54061 3.85785 6.02717 1.325049 -0.411868 0.155586
O 5.87536 -0.0165 1.85051 0.258356 1.387377 -0.753606
O 5.66925 7.75903 6.43027 -0.408139 1.506938 -0.996841
O 5.39197 4.13765 1.97773 -0.482981 -2.492446 -0.51719
O 5.72668 3.86496 5.94209 -0.359154 -0.599754 0.130857
O 7.60693 2.1326 1.97332 0.030133 0.459217 -0.204165
O 7.59748 1.85172 5.86378 0.278367 0.066327 0.620871
O 7.58727 5.84632 1.67904 1.738611 -0.366596 0.186114
O -0.19367 5.73182 6.14449 0.048468 1.245322 0.441995
O 3.90321 1.83721 1.71164 -0.829937 0.339961 -0.35576
O 3.69355 2.05178 6.03477 -0.05843 -0.359227 -0.135054
O 3.83918 6.40017 2.07073 -1.786445 -0.446702 -1.296181
O 3.71136 5.83825 5.89331 -0.292325 -0.060385 -0.114213
Na 7.25328 4.16716 7.69381 0.312164 -0.615945 0.816964
Na 7.30387 7.60578 8.06833 0.174158 0.168047 0.226919
Ti 1.77462 1.85517 6.11844 0.332067 -0.002823 0.73665
Ti 1.69118 5.93897 1.94179 -0.955924 0.214477 0.812519
Ti 1.70874 5.73786 6.33641 -0.602413 0.654238 -2.396839
Ti 5.76897 1.85459 2.01738 1.749882 -1.083503 0.074234
Ti 5.76026 2.03062 6.19248 -0.541313 0.235111 0.574497
Ti 5.68887 5.90116 1.95353 1.283566 1.747597 1.155092
Ti 5.5382 6.00292 6.23923 0.400209 -1.204286 -0.517421
Zr 1.78809 2.01596 1.81771 -1.601252 -0.7229 0.683073
Ba 7.6861 0.04041 4.11044 0.008885 -1.26222 -0.490206
Ba 7.56274 3.99844 4.1327 0.275813 -0.159563 -0.789318
Ba 3.73089 -0.0582 4.09954 0.52188 -0.051552 0.608326
Ba 3.75562 3.98652 4.00782 -0.288014 -0.215459 0.754751
Bi 3.68306 7.75441 0.23592 0.091175 0.083894 0.076766
Bi 3.94938 3.72934 0.16314 0.333447 0.159163 -0.68305
40
Lattice="7.888085 0.000000 0.000000 -0.146535 8.049904 0.000000 -0.215438 -0.186933 8.246719 " Properties=species:S:1:pos:R:3:forces:R:3 energy=-323.83005863 pbc="T T T"
O 1.79838 2.22201 8.09621 -0.488271 0.109481 -0.886458
O 1.75973 1.82951 3.95939 0.619842 1.472575 0.979413
O 1.77479 6.11964 8.13499 0.128931 -0.340921 -0.962025
O 1.78613 6.05594 4.07935 -0.235885 0.342116 0.470058
O 5.61415 2.07041 8.18287 0.337156 -0.094199 -1.135353
O 5.64758 2.00707 3.89141 0.074483 0.030991 0.394122
O 5.39954 5.94485 8.24259 0.32875 0.389584 -0.590108
O 5.72365 6.00859 4.00175 -0.264894 -0.243642 -0.098262
O 2.1549 0.00905 2.00114 -0.248222 0.201328 -0.615968
O 1.80086 0.15021 6.19834 -0.05916 -0.536778 -0.105652
O 1.78138 4.26015 2.13561 0.184041 -1.096736 -0.208217
O 1.54181 4.0855 6.09605 0.875449 0.342205 -0.195005
O 5.84305 0.02009 1.94196 -0.436212 0.326249 -0.155776
O 5.78991 0.03691 6.0227 -0.282156 -0.071956 0.739962
O 5.63954 4.12145 2.01064 0.67349 -0.158238 -0.40861
O 5.73451 4.09274 6.32312 -0.236678 -0.807132 -0.595503
O 7.71075 2.04333 1.96984 -0.348939 0.173927 -0.378895
O 7.62294 1.99467 6.07246 0.435292 0.238259 -0.165245
O -0.15654 6.18435 2.03435 -0.212213 -0.32238 -0.200662
O 7.55078 6.08835 6.11809 0.916445 0.175209 0.091784
O 3.91305 2.25492 1.56825 0.319983 -0.195682 0.967226
O 3.75346 2.21632 6.163 -0.096738 0.093809 0.062181
O 3.79673 6.18665 1.90981 -0.065011 -0.24802 0.216928
O 3.73984 6.0852 6.09279 -1.207625 -0.2773 0.071737
Na 7.63172 4.1423 0.19004 0.164378 -0.178724 -0.223693
Na 7.39084 7.71674 8.21734 0.192004 -0.154211 0.065538
Ti 1.66527 1.92368 6.21705 0.435244 -0.168106 0.50298
Ti 1.69767 6.08794 2.21293 0.534622 1.061896 -1.230293
Ti 1.68411 5.86914 6.1936 -0.575038 0.598501 1.822962
Ti 5.81948 1.83171 2.03298 0.329312 0.749542 0.106383
Ti 5.80866 1.79291 6.25931 -0.714213 0.916254 0.593279
Ti 5.77269 5.89808 2.05728 -0.611011 0.803229 0.837007
Ti 5.64746 5.85989 6.24928 0.555437 0.768853 0.243462
Zr 1.86068 2.15103 1.89756 -0.7571 -1.368908 0.403783
Ba 7.69207 0.01664 4.09183 0.159496 -0.016726 0.047895
Ba -0.15108 4.16604 4.13538 -1.085857 -1.31631 -0.247069
Ba 3.70362 0.01772 4.30819 0.613404 -0.066164 -0.718082
Ba 3.7157 3.99441 4.0963 0.663955 -0.000248 0.106051
Bi 3.78585 7.6085 0.23833 -0.63369 -0.285884 0.413785
Bi 3.91928 3.56303 8.10636 0.017204 -0.845744 -0.01566
40
Lattice="8.081122 0.000000 0.000000 0.067937 8.163485 0.000000 -0.156637 -0.176700 8.224521 " Properties=species:S:1:pos:R:3:forces:R:3 energy=-317.63942569 pbc="T T T"
O 1.8565 1.75378 8.19818 1.260877 0.212619 -1.897723
O 1.91314 1.74117 4.07927 0.279283 1.459973 3.222404
O 1.76698 6.08031 8.17786 1.711867 0.316875 1.1175
O 2.00257 5.99814 4.08976 -0.043393 0.285154 0.275343
O 5.92416 1.83382 8.16052 -0.701865 0.191532 2.158416
O 6.08717 1.92706 4.0985 -0.597909 0.60953 -1.543736
O 5.99634 5.86497 8.1352 -0.934116 0.336861 0.679673
O 6.02829 6.03025 4.00265 0.233054 -0.491961 -0.154693
O 2.05632 0.16808 2.04846 -0.082087 -8.009776 -1.002298
O 1.96859 -0.12986 6.08242 0.439915 0.494626 1.037394
O 2.01119 4.09969 2.04786 0.712935 1.62691 -0.787671
O 2.05075 4.09972 6.29562 0.726515 -1.527689 0.011938
O 6.09482 8.08933 2.29487 -0.152816 -0.737685 -2.487893
O 6.03949 -0.06793 6.0374 -0.677725 -0.313085 1.661728
O 5.9348 3.96796 2.13684 -0.460148 0.467184 -1.381628
O 5.89673 4.01921 6.0398 -0.133847 -0.461942 1.132226
O 8.02799 2.12858 2.03978 -2.006589 -0.361477 -0.85085
O -0.04277 1.86338 6.19608 0.951554 0.804598 0.241627
O 0.0348 6.01545 1.99072 -0.761489 0.415343 -0.080274
O 0.02408 5.99292 6.18054 -1.230894 -0.1267 -0.195512
O 4.02206 1.89442 2.03168 2.53248 0.375214 -1.023807
O 3.9895 1.83995 6.13122 -0.169007 0.744992 0.947213
O 3.94165 6.0805 2.15824 0.332334 0.25841 -1.965368
O 4.02285 6.05672 6.2146 0.140877 0.057931 0.97423
Na 8.02693 8.04827 4.22533 -0.246552 0.169319 0.217138
Na 0.07454 4.04559 0.07344 0.234591 0.100448 0.032644
Ti 1.87399 1.87418 6.12454 -2.307342 -1.79462 0.837358
Ti 1.9935 6.17789 1.96257 -0.01277 -1.41947 1.111223
Ti 1.97994 5.97337 6.17676 -1.947717 0.935507 -0.972643
Ti 6.00067 1.99642 2.03412 0.841133 0.266961 4.592134
Ti 5.86061 1.96443 6.41537 1.03943 -0.949087 -5.259797
Ti 6.17385 6.08646 2.07327 0.211787 0.421646 2.358858
Ti 6.06448 5.94683 6.18769 1.317457 0.314071 -0.650003
Zr 1.99026 1.96695 2.11259 -1.263535 4.454657 -1.417122
Ba 7.94296 0.11759 0.08181 1.111275 -0.641614 -0.747692
Ba 8.02042 3.91762 4.00835 -0.516686 0.272556 0.612221
Ba 3.9855 7.97133 4.2578 0.797879 0.415798 -0.771231
Ba 3.82268 3.96123 4.12509 1.288151 0.305296 -0.233205
Bi 4.12306 8.09532 0.01056 -1.262347 0.064721 -0.178774
Bi 3.94013 3.98001 8.22164 -0.654559 0.456375 0.380653
40
Lattice="7.954418 0.000000 0.000000 0.066872 8.035489 0.000000 -0.154181 -0.173930 8.095568 " Properties=species:S:1:pos:R:3:forces:R:3 energy=-323.23056802 pbc="T T T"
O 1.94226 2.18735 7.99961 0.295197 -0.174677 -1.116687
O 1.82033 2.17745 4.02947 0.57456 -0.70989 1.797296
O 1.98291 6.16912 8.07256 -1.387347 -1.139243 -0.384255
O 1.74521 6.08158 3.98635 0.91542 0.775103 0.222792
O 5.85265 1.98729 8.08067 -0.611942 0.123073 0.172997
O 5.94408 2.17071 4.03774 -0.076375 -0.2496 -0.988863
O 5.79585 6.29628 8.09311 -0.110599 -0.234301 0.066892
O 5.94119 6.26769 4.10039 -0.340878 -1.559646 -0.720773
O 1.81637 0.07899 1.86403 0.59003 -2.240778 0.637934
O 1.98957 0.16241 6.18789 -0.645173 -0.039575 -0.48713
O 2.117 4.05058 1.97106 0.097231 2.667927 0.435815
O 1.84428 4.21438 5.94176 0.401009 -1.513989 0.166238
O 6.17598 0.06176 2.38638 -0.11024 0.344595 -1.236094
O 6.01614 0.11404 5.96405 -0.269268 -0.769928 0.214754
O 5.80067 4.2103 2.03633 -0.067699 0.975141 -0.439086
O 5.8244 4.0885 6.19294 0.252 0.28579 0.196943
O 7.84499 2.29366 1.83933 -0.68856 -0.642685 0.186676
O 7.83025 2.09169 6.05685 2.28834 0.208884 0.291553
O 0.05923 5.91616 1.84203 -0.466197 0.572714 0.085323
O 7.85698 6.05841 6.09481 0.213422 0.05082 0.324954
O 4.06472 2.13846 1.85373 0.380414 -0.762402 0.249451
O 4.05591 2.04686 5.93762 -1.685203 0.708712 0.717469
O 4.05417 6.27388 1.86097 -0.476088 0.640186 0.579613
O 3.82926 6.19154 6.18052 0.317327 -0.104533 -0.446055
Na 7.94132 7.87733 4.14894 -0.428015 0.0043 0.275627
Na 7.78912 3.69064 8.04722 0.099747 0.195137 0.197458
Ti 1.83623 1.98172 6.10284 -0.033562 0.064597 0.253139
Ti 1.81204 6.0929 2.12339 0.058666 -1.956691 -1.349155
Ti 1.84938 5.93431 6.00568 -0.581901 0.258353 0.756073
Ti 5.98557 1.83228 2.1434 0.480194 1.603063 0.761439
Ti 6.01127 1.85469 6.05255 -1.446271 0.163892 -0.473995
Ti 5.92263 6.16933 2.0819 -0.01735 -1.918357 0.493447
Ti 5.9851 5.86863 6.23161 -0.025858 1.58233 -0.525105
Zr 1.87612 2.01098 2.0893 0.430203 2.693011 -1.242801
Ba 7.76272 0.02324 8.09124 -0.228901 -0.725421 -0.524046
Ba 7.80905 4.06398 3.8499 0.066627 0.106373 0.948546
Ba 3.83694 0.01148 4.12692 0.676525 -0.031693 0.518572
Ba 4.00351 4.04401 4.1418 -0.216596 0.082376 -0.546174
Bi 3.70951 7.61136 0.02514 1.879957 0.943808 -0.581813
Bi 4.27895 3.56189 0.07682 -0.102842 -0.276775 0.511033
40
Lattice="7.895662 0.000000 0.000000 0.066378 7.976135 0.000000 -0.153042 -0.172645 8.035770 " Properties=species:S:1:pos:R:3:forces:R:3 energy=-322.74257239 pbc="T T T"
O 1.98891 1.99967 7.96126 0.587877 0.566675 0.618713
O 2.05112 2.12607 4.06844 -0.380298 -0.349636 -0.06388
O 2.02173 6.30863 0.10348 0.060635 -0.946128 -0.855215
O 1.97351 6.07274 4.21703 -0.371854 -0.311342 -0.680518
O 6.01941 2.25512 0.12074 -1.595779 0.015962 -1.563173
O 5.8677 2.03268 3.94962 0.062431 0.335105 1.082583
O 5.83577 6.18323 7.98385 -0.366865 -1.021367 0.389379
O 5.82493 6.04173 4.06653 0.331284 -0.530489 0.429877
O 1.71314 0.01067 2.05811 0.545188 0.095435 0.808344
O 1.69289 0.02838 6.1082 1.021625 -0.343175 -0.704066
O 2.06634 4.15241 2.15025 0.07676 0.782781 -0.531903
O 1.95788 3.91282 6.08039 -0.220031 1.887862 0.188152
O 6.0436 -0.03201 2.15307 -0.660742 1.441117 -0.69906
O 5.84826 0.14656 6.17512 -0.902046 -0.931665 -1.000098
O 5.80335 4.15255 1.91046 -0.11522 0.34202 0.334188
O 5.66497 4.00933 6.04063 1.005016 0.101335 0.285829
O 7.7534 2.34222 1.84925 1.227117 -0.264524 0.89975
O -0.08988 2.11261 6.03598 0.024542 0.058772 -0.150287
O 7.89221 5.97212 1.98285 0.48913 -0.571846 0.149307
O 7.7222 6.00911 6.16558 1.33985 -0.97006 -0.605195
O 4.00666 2.11855 1.99963 -0.721273 0.27641 -0.519937
O 3.91227 2.01534 5.96923 -0.631481 0.15291 0.602065
O 3.99126 6.14834 1.7685 -0.211004 0.088973 0.385752
O 3.80866 5.87413 6.17776 0.408231 1.220376 0.589564
Na -0.00227 7.4715 4.00293 -0.167158 0.660067 -0.00797
Na 7.63474 3.86999 8.02406 0.027127 -0.317878 -0.030959
Ti 1.92623 1.86614 5.86259 -0.77711 0.550374 2.615944
Ti 1.85928 6.06832 1.96588 0.499508 1.263783 -0.380729
Ti 1.8986 5.88898 6.03716 -1.159262 -0.960924 -0.01508
Ti 5.88221 1.89133 1.96754 1.281864 -0.533131 1.021131
Ti 5.94104 1.93258 5.98039 -0.100376 0.506556 -0.483125
Ti 6.03169 5.94822 1.91272 -1.073069 0.575122 0.269259
Ti 5.95572 5.78811 5.9924 -0.404981 0.836588 0.236913
Zr 1.8928 2.11641 2.07459 -1.32505 -1.941361 -1.856439
Ba 7.6476 0.06812 7.9083 1.282132 -0.139208 1.121869
Ba 7.71321 4.04822 3.98279 0.56147 -0.95076 0.145205
Ba 3.95814 -0.00235 4.2437 0.071696 -0.094686 -1.399129
Ba 3.88909 4.10768 4.09257 0.358284 -0.701037 -0.473621
Bi 3.91509 7.22816 8.00931 -0.469679 1.447731 0.560401
Bi 3.83652 3.67299 0.10233 0.391514 -1.326737 -0.71384
40
Lattice="7.990731 0.000000 0.000000 0.185636 8.338550 0.000000 0.061416 0.237983 7.959352 " Properties=species:S:1:pos:R:3:forces:R:3 energy=-323.77559033 pbc="T T T"
O 2.07796 2.00901 0.04484 0.102597 -0.463257 0.043607
O 1.96128 1.81931 4.1308 0.291086 0.051965 0.518668
O 2.26543 6.12284 0.16624 -0.839553 -0.177043 -1.737958
O 2.11521 6.18264 4.10567 0.287883 -0.528958 0.273105
O 5.8874 1.85385 0.02037 1.062485 0.669045 -0.418287
O 6.03956 2.04646 4.01691 0.522341 0.114993 1.388029
O 6.01801 6.14618 7.93833 0.033207 -0.301325 1.717248
O 6.10427 6.27298 3.96559 0.274935 -0.650559 -0.080693
O 2.22324 8.07806 2.16162 -0.549314 2.258634 -0.120337
O 2.10592 8.31157 5.98157 -0.177402 -1.326581 0.743742
O 2.26819 3.95357 2.35951 0.172849 0.211943 0.033208
O 2.15692 3.96189 5.7887 0.38513 0.872403 -0.062176
O 6.10126 7.96163 1.87657 0.49746 1.25565 -0.580875
O 6.22817 8.17871 6.27864 -0.485689 0.062025 -0.383404
O 6.03089 4.0056 1.89856 0.101736 -0.699606 0.477689
O 6.04642 4.21416 5.96625 0.102143 -1.083198 0.129764
O 8.02206 1.91755 2.11964 -1.483155 -0.15241 -0.355345
O 0.10084 2.19913 6.23958 -1.974431 -0.044233 -0.848512
O 8.10914 5.93287 1.95913 -0.05077 0.655403 0.033956
O 0.1897 6.09437 6.07101 -0.542393 0.166756 0.188357
O 4.28156 1.70406 2.01137 -1.316466 0.3029 -0.078862
O 4.05547 1.96007 6.15174 1.174185 0.004985 -0.322434
O 4.02377 6.04593 2.18347 0.466787 -0.587274 0.534366
O 4.05336 6.15194 5.97632 0.781138 -0.19968 -0.307604
Na 7.90372 4.19517 0.05923 0.120702 0.061146 0.059972
Na 0.03902 0.30233 0.25426 -0.165961 -0.075433 -0.364593
Ti 1.96592 2.18447 6.03135 0.780782 -0.036214 0.704885
Ti 2.09194 6.37227 1.94003 0.172255 -2.13441 0.272626
Ti 1.95618 6.46155 6.12021 1.453481 0.810309 0.529002
Ti 6.05153 2.21583 2.11625 -0.017196 0.35847 -0.189348
Ti 6.13719 2.41566 5.9964 0.001211 -0.313582 -0.080227
Ti 6.20331 6.23001 2.00692 -0.001257 -0.666211 1.076357
Ti 6.02392 6.22667 6.22312 0.145622 1.310198 -1.928661
Zr 1.98544 1.93313 2.10288 1.64946 0.431322 -0.879844
Ba 3.92776 4.1088 0.09194 -0.087939 -0.375613 0.110543
Ba 0.24967 8.33248 4.21008 -1.252792 -0.294118 -0.414866
Ba 8.06915 4.2247 3.97202 0.09569 0.304312 0.271093
Ba 4.31753 8.28094 4.11699 -0.296637 0.092984 -0.177195
Bi 4.51474 0.57462 7.8386 -0.890357 -0.936163 0.478611
Bi 3.7796 4.58071 3.99702 -0.54385 1.050423 -0.253607
40
Lattice="7.956784 0.000000 0.000000 0.184848 8.303125 0.000000 0.061156 0.236972 7.925538 " Properties=species:S:1:pos:R:3:forces:R:3 energy=-323.83054521 pbc="T T T"
O 2.07237 1.84381 0.03036 0.182187 -0.256052 0.567201
O 2.0557 1.96002 4.23878 -0.11682 -0.133555 -1.172053
O 2.02481 6.05986 0.08972 -0.088564 -0.411295 0.859557
O 2.1149 6.16671 4.0454 0.196286 -0.869793 0.001487
O 5.92859 1.96536 7.80422 0.182398 0.412327 0.709357
O 5.94419 1.8305 4.01878 -0.059162 0.461991 0.017951
O 5.97212 5.94534 0.08081 0.16503 -0.519489 1.137615
O 5.82196 6.19037 4.15732 0.636703 -0.75893 -1.255214
O 2.11609 8.0761 2.18461 -0.385992 -0.610919 -0.183401
O 2.2518 8.13949 6.06412 -0.079535 -0.128571 -0.141281
O 2.33567 3.95731 2.1829 -0.743437 0.741826 0.20519
O 1.94087 4.10839 6.08764 0.154073 -0.544405 -0.013754
O 6.38032 8.01745 1.81815 -0.540653 -1.484241 0.716213
O 6.10527 8.14542 6.1337 -0.591465 0.270042 0.052206
O 5.93687 3.84386 2.12133 -0.076698 0.962239 -0.07082
O 6.16646 4.10287 5.99543 -0.560408 -1.022214 -0.036156
O 7.89741 1.98942 2.06701 0.043181 0.123551 -0.0474
O 8.03581 2.0031 5.95331 -1.260498 0.063392 0.162486
O 8.09301 5.8075 2.18636 -0.934575 0.43288 -0.523725
O 7.99075 6.28069 5.86679 -0.021384 -0.265857 0.418183
O 4.08412 1.70519 1.89278 0.6259 -0.331244 -0.021351
O 4.02975 1.84105 6.02569 0.317288 0.787397 0.0472
O 4.0089 5.98718 2.1905 0.907397 0.455507 -0.386825
O 3.89422 5.85798 5.92033 1.833341 0.704554 0.352983
Na 8.01839 4.01082 0.24963 0.168363 0.001797 -0.192213
Na 0.08554 0.26588 7.81415 0.133374 0.113358 0.186401
Ti 2.04678 2.2947 6.11889 -0.62069 0.050016 -0.51673
Ti 2.05032 6.20113 2.00599 0.455494 1.313376 -1.541848
Ti 2.13442 6.34525 6.01457 -1.453826 0.833631 1.633927
Ti 5.99284 2.0632 2.12642 0.291545 -0.105785 -0.654865
Ti 6.12594 2.25804 5.90165 0.469666 1.024971 1.380088
Ti 6.29074 6.15471 1.96394 -0.72276 1.955117 -0.381497
Ti 6.20203 6.293 6.17521 0.980654 -0.391803 -1.164528
Zr 2.03233 1.97842 2.19108 -0.168627 -0.552244 -0.702989
Ba 3.98309 4.04868 0.11118 0.03792 -0.024332 -0.00473
Ba 7.9902 8.39607 4.11608 1.539701 -1.250614 -0.181593
Ba 8.02431 4.14853 4.12005 0.537304 -0.033127 0.03346
Ba 4.23497 8.23064 4.10076 -0.986545 0.521811 -0.540562
Bi 4.30384 0.54532 7.72067 -0.525817 -0.447345 1.157026
Bi 3.99357 4.76936 3.95946 0.07965 -1.087966 0.095002
40
Lattice="7.907497 0.000000 0.000000 0.183703 8.251694 0.000000 0.060777 0.235504 7.876446 " Properties=species:S:1:pos:R:3:forces:R:3 energy=-323.61217583 pbc="T T T"
O 2.00521 1.59667 7.87151 -0.685469 0.895864 -0.343401
O 2.14039 2.001 3.98276 -0.13273 0.270694 2.298789
O 2.37934 6.25615 0.0048 -0.686483 -0.703685 0.826024
O 2.28324 5.92903 3.99307 0.204023 0.073904 0.610688
O 6.0296 1.78647 0.17003 0.289044 0.513514 -1.452468
O 5.6636 2.32028 4.11005 0.247351 -1.961035 -1.074631
O 6.20107 5.86744 0.11957 -0.166176 0.232502 -1.310624
O 6.05047 6.13951 3.99473 0.030805 -0.540768 0.632861
O 2.1953 7.94511 2.13193 -0.007291 1.973248 0.001191
O 2.2236 8.10431 5.81334 -0.535898 -0.084591 -0.194565
O 2.27115 3.99393 1.98676 -0.617645 1.132862 -0.345344
O 2.16993 4.03688 6.06477 -0.385724 0.59839 0.287462
O 6.11115 8.03406 1.97729 0.175491 -0.027254 0.14078
O 6.09124 8.24444 5.94322 0.538575 -1.371536 0.280182
O 5.86013 3.89367 2.13978 0.145572 0.751349 -0.495845
O 6.0742 3.99417 5.92644 -0.365101 1.220771 0.849964
O 7.88168 1.94272 2.19464 -1.028843 0.022643 -0.046889
O 7.9233 2.08949 5.80816 1.071186 -0.232691 0.59668
O 0.22771 6.09781 2.20285 -0.692311 -0.296354 -0.628722
O 0.22339 6.0844 5.90545 -0.705979 0.311974 0.297755
O 4.03967 1.68743 1.6417 -0.40781 0.050381 0.737795
O 3.95781 1.86524 6.20505 -0.018413 0.243719 0.353488
O 4.13127 5.97492 2.15026 0.878938 0.089442 -0.004092
O 4.22799 6.13939 5.96227 0.297162 -0.35863 -0.530406
Na 7.82809 4.32383 7.66147 0.005815 0.044678 0.230818
Na 7.67773 0.14027 0.00946 0.317042 -0.095766 0.159432
Ti 1.98616 2.29801 5.99097 0.629746 -2.518074 -0.229041
Ti 2.1182 6.21497 2.02598 0.138164 -1.63452 -0.470702
Ti 2.0532 6.34534 6.06284 0.820643 0.66046 -0.260541
Ti 5.92523 2.09718 2.11087 0.586846 0.585547 0.614025
Ti 6.06902 2.19073 6.13717 -0.722007 -0.050048 -1.110834