40
Lattice="8.012958 0.000000 0.000000 0.000000 8.012958 0.000000 0.000000 0.000000 8.012958 " Properties=species:S:1:pos:R:3:forces:R:3 energy=-327.07731386 pbc="T T T"
O 1.77741 1.7675 7.93327 1.29278 0.659226 0.533621
O 1.93782 1.9817 3.98347 0.206463 -0.267154 -0.339043
O 2.07795 5.99411 7.81858 0.101326 -0.842563 2.002066
O 2.09373 5.9139 3.91255 -0.823174 -0.293245 -0.080284
O 5.89382 2.03716 7.90457 0.317621 0.186336 0.100806
O 5.92969 1.64139 3.81447 0.383117 0.791289 -0.156655
O 5.94716 5.71552 0.02228 -0.480889 0.187704 -0.127476
O 6.23159 6.08037 3.92298 -1.349439 0.025612 -0.343025
O 2.10471 7.81787 1.89438 -0.562799 0.512165 0.15238
O 2.10728 7.81639 5.91413 0.370178 0.670711 -0.028741
O 2.00461 3.93184 1.86798 -0.436812 -0.145354 -0.657229
O 1.98495 3.78286 6.10124 -0.414003 2.316926 -0.290044
O 5.73689 7.99441 1.60162 0.601832 -0.534573 0.836479
O 5.97732 7.95016 6.01799 -0.645231 -0.242802 -0.146834
O 5.90762 4.01417 2.02966 -0.022138 -0.36244 -0.242611
O 5.92785 3.80374 5.72183 1.551075 -0.232923 0.516716
O 8.00602 1.78104 1.92705 -1.354934 0.533611 0.069977
O 0.06038 1.82426 5.8702 -1.120361 0.602042 0.64475
O 7.97634 6.057 1.88091 -0.065761 -0.415165 -0.107909
O 7.88387 6.11679 5.96617 0.663842 -1.353764 0.288617
O 3.80824 1.9303 2.03042 1.277284 0.330718 -0.821934
O 3.97384 2.04577 5.83846 0.42924 -1.475959 0.667234
O 3.90295 5.80851 2.03258 0.987987 0.232444 -0.403908
O 4.11999 5.67661 5.9679 -0.860079 1.120692 0.12053
Na 3.82342 0.4628 7.87782 0.297826 -0.330005 0.224173
Ti 2.0066 1.95656 1.8254 -0.295585 0.203663 0.640943
Ti 2.01841 2.04893 5.99949 0.340379 -1.074416 -0.799421
Ti 1.94308 6.00969 2.02102 -0.08561 0.610685 0.898611
Ti 2.26471 6.04739 6.05102 -0.102199 -0.541281 -0.95961
Ti 5.99802 1.77495 1.98795 0.2652 -0.396961 -0.485194
Ti 5.8907 1.93555 6.07882 -0.90266 1.535519 -0.177573
Ti 6.11331 5.94685 1.93678 0.354894 0.863544 0.070991
Ti 6.05557 6.11527 5.82548 0.052223 -0.701656 0.499446
Ba 0.02196 8.00703 7.77048 -0.403916 -0.584396 1.248567
Ba 0.00054 3.81801 4.08554 0.072306 0.563362 -0.644615
Ba 3.95419 7.97133 3.87472 -0.150941 0.089173 0.121801
Ba 4.00853 3.92456 4.04583 -0.363062 -0.396322 -0.49537
Ba 0.07723 0.06027 4.06177 0.296551 -0.733726 -0.845634
Ba 7.93717 3.96047 7.9066 0.248128 -0.180299 0.03435
Bi 4.05023 4.41132 0.45914 0.329343 -0.930419 -1.51895
40
Lattice="8.267287 0.000000 0.000000 0.000000 8.267287 0.000000 0.000000 0.000000 8.267287 " Properties=species:S:1:pos:R:3:forces:R:3 energy=-340.04009163 pbc="T T T"
O 1.96794 1.91215 8.1458 0.794387 0.425029 0.787361
O 2.2623 1.93213 4.02686 -0.069993 0.3427 0.857479
O 2.0744 6.07954 0.06722 0.136115 0.622005 -0.953851
O 1.97977 6.29166 4.15984 -0.190971 -0.36721 0.156637
O 6.3342 1.97003 8.17229 -0.045762 0.098002 0.563703
O 6.06594 1.9957 4.0702 1.14031 0.442538 -0.718788
O 6.05683 6.10659 0.13446 0.469725 0.240059 -0.392694
O 6.27296 6.17738 4.18989 -0.092327 -0.420171 0.17279
O 1.93122 0.04351 2.00484 0.480427 -2.46121 0.038209
O 2.16399 8.19649 6.31313 0.166111 0.321145 -0.553533
O 2.14612 4.10973 1.99283 -0.246151 -0.538612 0.573159
O 2.07876 4.14061 6.25501 0.236487 -0.786804 -0.739421
O 6.33837 8.0988 1.9428 -0.384506 0.097571 0.634328
O 6.31985 8.19276 6.10102 -0.571089 -1.094334 0.305907
O 6.18394 3.90847 1.90329 0.256699 1.014844 1.020166
O 6.2109 3.99521 6.26075 0.454313 1.593249 -0.416073
O 0.05278 2.04152 1.98207 -1.394659 0.201232 0.844057
O 0.03283 2.01085 6.12632 -0.026472 0.049642 -0.621374
O 8.16109 5.99506 1.96466 -0.29514 0.235739 0.583049
O 8.17484 6.23633 6.32795 0.139663 -0.495921 -0.199261
O 4.36398 1.83286 2.02692 -0.720377 0.353323 -0.569585
O 4.37665 2.0334 6.30251 -1.684757 -0.364738 -0.459698
O 4.12911 5.99414 2.25706 0.999467 1.096029 -0.368405
O 4.29368 6.18034 6.33794 -0.132078 -0.063358 -0.763112
Ti 6.2382 2.15876 2.21211 -0.358265 -1.191256 -0.201524
Ti 6.2464 2.21444 6.38109 0.190273 -1.606038 -0.64684
Ti 6.21644 6.29744 1.91344 -0.086788 -0.098969 0.558897
Ti 6.202 6.31353 6.05542 -0.46106 1.08467 0.306869
Zr 2.08272 1.98675 1.9697 0.003192 1.510274 -0.518418
Zr 2.1527 1.95367 6.08934 -0.849578 1.451738 1.366265
Zr 2.02366 6.14357 2.04494 0.304065 0.313644 0.648831
Zr 2.00103 6.168 6.23162 0.481946 -0.42095 0.284119
Ba 8.17508 8.25321 4.07883 0.024705 0.352348 0.205821
Ba 8.22843 4.20766 4.07572 -0.036832 -0.574616 0.398607
Ba 4.17074 8.25873 4.10399 0.472183 -0.133831 0.082727
Ba 4.19095 4.16101 4.2245 0.117227 -0.176105 0.014711
Ba 8.12565 4.16039 8.24852 0.749616 -0.492515 -0.134186
Ba 8.21828 0.02863 8.22457 0.01167 0.236758 -0.220017
Ba 4.15202 0.03748 0.02906 0.538342 -0.113389 -0.554078
Ba 4.2229 4.22595 0.22302 -0.520118 -0.682513 -1.372835
40
Lattice="8.239547 0.000000 0.000000 0.000000 8.239547 0.000000 0.000000 0.000000 8.239547 " Properties=species:S:1:pos:R:3:forces:R:3 energy=-339.66804011 pbc="T T T"
O 2.01462 2.11999 8.19016 -0.403463 -0.099574 0.462673
O 2.0811 2.05596 4.11418 -0.002615 0.167877 -1.310693
O 2.05179 6.12256 0.04788 -0.180979 0.210085 0.379309
O 2.15904 5.91405 4.23487 -0.316155 1.453948 -1.763611
O 6.18809 1.96314 8.22722 0.435404 0.28408 0.220746
O 6.0651 1.94001 3.93785 0.226133 0.271592 0.235126
O 6.09884 6.12346 8.18439 0.417034 -0.299032 1.137757
O 5.99656 6.25639 4.21507 0.462598 -0.626025 -0.880835
O 1.82024 0.11892 2.11928 0.456138 -1.103623 -0.113287
O 2.0767 8.22452 6.03068 -0.197147 -0.872873 0.577332
O 1.92767 4.20757 2.19117 0.739123 -1.452384 -0.763111
O 2.11758 4.08958 6.09255 -0.598099 -0.388932 0.833389
O 6.1756 8.08108 2.07574 0.232646 -0.147883 -0.413345
O 5.94944 8.10059 6.23349 0.686862 0.932672 -0.073594
O 6.18416 4.18479 2.15011 -0.320583 -0.631761 -0.355689
O 6.32541 3.84276 6.14348 -0.689725 1.797123 0.189496
O 8.15569 2.23124 2.16117 -0.24749 -0.513819 -0.817714
O 8.00818 1.81766 5.97617 1.156041 0.086876 0.819417
O 8.19498 6.09774 2.10858 -0.982608 0.331604 -0.037487
O 8.14561 6.14399 6.01324 -0.653116 0.277627 0.89643
O 4.26434 1.99057 1.9009 -1.066636 0.504551 0.302372
O 4.12904 2.03544 6.08504 0.965758 0.013533 0.500998
O 4.15448 6.16731 2.01882 0.147372 0.016873 0.060566
O 4.1293 6.08658 6.20617 0.652902 -0.149892 0.237787
Ti 6.21316 2.14598 2.17785 0.311904 -0.283851 0.136889
Ti 6.24658 2.1205 6.41348 -1.009605 -1.278139 -1.588072
Ti 6.03102 6.14937 1.97013 0.652026 1.24595 -0.69473
Ti 6.01824 6.33396 6.0336 0.15882 -0.764028 1.164551
Zr 2.11357 2.12717 2.0373 -0.211626 0.25273 -0.147827
Zr 2.11624 2.01518 6.08361 0.054249 0.514661 1.153702
Zr 1.94008 6.2285 2.13791 0.848597 -0.168017 0.566934
Zr 1.91833 6.11749 6.25808 1.261689 0.30137 -1.30329
Ba 0.03896 8.20404 4.18768 -0.928218 0.267453 -0.747464
Ba 8.20803 4.20998 4.15059 -0.238473 -0.652859 -0.097472
Ba 4.23063 0.04847 4.1219 -0.364896 -0.155142 -0.226176
Ba 4.22012 4.07701 4.04983 -0.473608 0.386705 0.671155
Ba 8.21128 4.14803 0.09935 -0.337953 0.126417 -0.026528
Ba 8.18932 0.06376 8.23588 -0.347749 -0.336035 0.434615
Ba 4.20695 8.12834 0.00523 -0.209232 0.467788 0.049332
Ba 4.17554 4.11761 8.09528 -0.085319 0.012354 0.33035
40
Lattice="8.263593 0.000000 0.000000 0.000000 8.263593 0.000000 0.000000 0.000000 8.263593 " Properties=species:S:1:pos:R:3:forces:R:3 energy=-339.53468338 pbc="T T T"
O 1.89295 2.04549 0.0202 0.173565 0.12118 0.308086
O 1.85025 2.2062 4.21253 0.417349 -0.32039 -0.93791
O 1.82112 6.24524 0.17455 -0.317344 0.473271 -2.249321
O 2.06334 6.16785 4.25678 0.159862 0.159919 -0.39471
O 6.16445 2.10752 8.17275 -0.261521 -0.134095 0.213188
O 6.20204 1.83381 3.91717 -0.527281 1.13429 0.554633
O 6.36657 6.16549 0.11421 -0.34073 -0.462788 -0.781929
O 6.08741 6.2104 4.2328 -0.196454 -0.4816 0.580422
O 2.26693 0.07378 2.03729 -1.000459 -0.156144 0.643514
O 1.92487 8.25481 6.3488 0.319567 -0.165349 -0.613479
O 2.04383 4.26527 1.85116 -0.174893 -1.518117 1.083133
O 2.02308 4.19224 6.36547 -0.224538 -1.017379 -0.170713
O 6.23009 8.24854 1.87154 -0.386974 -0.352116 0.227641
O 6.26338 8.18384 6.14425 -0.478196 -0.190645 0.437296
O 6.20769 4.05608 1.98011 0.106669 -0.154549 0.537382
O 6.21287 3.99558 6.13848 -0.352081 0.216478 -0.036401
O 8.13721 1.94214 2.18674 0.617671 0.714313 -1.03046
O 8.1222 2.0061 6.30694 -0.522286 0.408713 -0.571783
O 8.08248 6.32055 2.38271 0.374904 -0.503372 -0.605158
O 8.047 6.08114 6.29616 1.449138 -0.076429 -0.366953
O 4.09626 2.04958 2.03397 0.806013 0.5411 0.144192
O 4.08261 2.10903 6.1659 1.167512 -0.35403 0.037915
O 4.1348 6.31076 1.87753 1.275096 -0.605452 0.804857
O 4.18691 6.19242 6.45728 -0.102878 -0.187645 -0.424092
Ti 6.2916 2.12096 2.09931 -0.858234 -0.87993 0.689023
Ti 6.1202 2.1584 6.37145 0.767139 -0.968128 -0.7732
Ti 6.18282 6.24496 1.87769 -0.816455 1.381391 0.852939
Ti 6.27317 6.20661 6.09052 -1.263218 1.689247 -0.627218
Zr 2.07853 2.09522 2.06251 0.393983 0.776414 -0.078425
Zr 1.95602 2.00189 6.2424 0.500262 1.19472 0.075393
Zr 1.9048 6.30873 2.13213 1.318474 -1.057951 -0.192273
Zr 2.10165 6.18586 6.27264 0.460319 -0.390712 0.875189
Ba 8.22152 0.09905 4.03501 -0.85321 -0.449599 0.810689
Ba 8.19508 4.01839 4.20481 -0.059746 0.783334 -0.287356
Ba 4.1673 8.25953 4.10671 0.6674 0.003789 -0.336442
Ba 4.30117 4.16173 4.19407 -0.711896 -0.092088 -0.468159
Ba 0.00071 4.10492 8.22181 0.022549 0.240683 0.43602
Ba 8.18831 8.21055 8.15836 -0.31152 0.294909 0.50976
Ba 4.25565 0.05164 8.15897 -0.352262 -0.541053 0.991811
Ba 4.24676 4.0537 0.07257 -0.885301 0.925811 0.132899
40
Lattice="8.127977 0.000000 0.000000 0.000000 8.127977 0.000000 0.000000 0.000000 8.127977 " Properties=species:S:1:pos:R:3:forces:R:3 energy=-334.98446362 pbc="T T T"
O 1.9361 1.92402 7.9219 0.543066 -0.132528 1.33641
O 1.99896 1.88364 3.99811 0.405079 0.088578 1.373988
O 1.87981 5.90397 7.92776 1.13681 0.865919 0.929546
O 1.77061 5.97243 3.9117 1.112441 0.32795 0.593231
O 6.09038 2.10581 8.07595 0.070095 -0.377848 -0.274469
O 6.05955 2.02431 4.07188 -0.075579 -0.269101 -1.099571
O 5.90196 5.82192 0.0118 0.265788 1.286363 -0.872264
O 5.95764 6.00804 3.98433 0.414348 0.582017 0.242463
O 1.94045 7.91018 1.94293 0.84445 0.936846 -0.128682
O 1.90489 7.99564 6.06324 0.682898 -0.319745 -0.164763
O 1.99442 4.03723 2.04801 0.044602 0.119135 -0.474735
O 1.99278 3.89514 6.11265 0.314278 1.045196 -0.738235
O 6.1909 8.03322 1.98274 -1.090361 0.624544 -0.174429
O 6.05314 7.99093 6.03992 -0.184706 0.367972 0.61415
O 6.15969 4.01391 2.15727 -0.365363 -0.694708 -0.509724
O 6.06752 3.92591 6.02974 -0.040171 1.7081 -0.001254
O 8.06286 1.80814 1.97311 -0.473656 1.101172 0.228711
O 0.05883 2.0405 5.93105 -1.775966 -0.264773 0.5627
O 8.07659 6.0508 1.92459 -0.638702 0.092044 -0.059011
O 7.98719 6.12727 6.12654 -0.589338 -0.655532 -0.241486
O 4.10504 1.99184 1.90764 0.276453 -0.101728 0.396331
O 4.01302 2.01604 5.99511 0.356227 -0.477414 0.348331
O 4.03803 5.97067 2.013 -0.804214 0.701471 -0.245978
O 3.92286 6.12599 5.96294 0.083765 -0.406082 0.341355
Ti 2.17972 2.05858 6.09594 -1.110489 0.108187 -0.116653
Ti 2.08645 6.10714 2.10333 -1.135194 -0.4226 0.421836
Ti 2.03375 6.1168 6.13814 -0.113151 0.507491 -0.520561
Ti 6.00291 2.23603 2.14354 1.170285 -1.02174 -0.039488
Ti 6.27167 2.20966 6.1849 -0.019347 -1.258474 -0.220971
Ti 6.09308 6.27677 2.02333 1.28251 -2.278849 0.769809
Ti 6.09139 6.19646 6.15822 0.892907 -1.219557 -0.477207
Zr 1.95221 2.03085 2.08711 0.084372 -0.896446 -1.862593
Ba 0.02622 0.03538 4.05184 -0.565387 -0.654209 0.301326
Ba 8.11034 3.97216 4.09573 -0.212116 1.01141 0.007934
Ba 4.11845 8.11126 4.14516 -0.007905 0.257551 -0.325665
Ba 4.01502 4.1556 3.93581 0.414098 -0.308769 1.337886
Ba 0.09819 4.18173 0.05302 -1.351259 -0.903614 -0.31471
Ba 0.04884 8.11798 0.00433 -0.229632 0.085755 -0.371034
Ba 4.17014 8.08946 8.05319 -0.509127 0.423136 0.279851
Ba 3.92729 3.98356 0.06072 0.897191 0.422881 -0.852378
40
Lattice="8.153885 0.000000 0.000000 0.000000 8.153885 0.000000 0.000000 0.000000 8.153885 " Properties=species:S:1:pos:R:3:forces:R:3 energy=-335.08729436 pbc="T T T"
O 1.96266 2.24999 0.0031 0.033548 -0.535342 -1.12292
O 2.15564 1.96648 4.09881 -0.494956 0.510176 0.912767
O 2.03887 6.12689 7.96801 -0.038525 0.276075 -0.345205
O 1.99231 6.26314 4.00875 0.028895 -0.158934 0.375824
O 6.1815 2.14155 7.99292 0.165015 -0.143228 0.342659
O 6.08906 2.27108 3.97534 -0.036061 -0.49944 0.694088
O 6.22472 6.04403 8.13269 -1.024901 0.837277 -0.60522
O 6.04279 6.09372 4.02802 0.398584 0.574739 -0.24296
O 1.85181 0.02359 1.94758 0.142345 -0.101198 0.050243
O 2.15797 0.11655 6.14118 -0.472751 -1.712169 -0.014744
O 1.89745 4.29932 2.07117 -0.148513 -0.877556 0.269915
O 1.97798 4.23281 6.02232 0.501983 0.535566 -0.2248
O 5.9782 0.19626 2.08449 0.512573 -0.714746 -0.159094
O 6.03929 0.23658 6.00434 0.570037 -2.274302 0.113503
O 5.92662 4.28183 2.05224 0.885673 -0.654908 -0.361784
O 6.12661 4.18631 6.08501 0.146383 -0.635057 -0.059421
O 8.01434 2.13712 1.9757 0.157858 0.306265 0.531082
O 0.06376 1.99333 6.00816 0.413099 0.024014 -0.035451
O 7.96856 6.28139 1.84979 2.115549 -0.320058 0.922595
O 7.99187 6.23633 6.06931 1.006736 0.051729 -0.248191
O 4.13796 2.24315 1.94596 -0.483685 -0.309312 0.251223
O 4.11459 2.01377 6.20181 -0.254792 0.681227 -0.599381
O 3.92973 6.25228 1.92563 -0.830471 -0.383444 0.575725
O 4.15397 6.13984 6.11561 -1.17422 0.204842 -0.337393
Ti 1.96402 1.85209 6.07226 0.958211 1.976264 0.855362
Ti 2.03091 6.12311 2.14086 1.309127 1.962601 -0.640544
Ti 2.2455 6.07808 6.11299 -0.922773 -0.690261 1.051591
Ti 6.04446 2.01856 2.1696 -0.636244 0.739481 -0.912229
Ti 6.04591 1.97793 6.17709 -0.977645 1.786333 0.54545
Ti 6.24215 6.04338 2.13364 -2.195514 -0.116141 0.137009
Ti 6.2026 5.9619 6.25544 0.051337 0.14746 -0.799162
Zr 1.89932 2.06887 2.07329 1.505452 -1.095365 -1.654026
Ba 8.04504 8.08753 4.15266 0.239297 0.060711 -0.550412
Ba 0.06526 3.99774 4.2099 -0.910777 0.621528 -0.045602
Ba 4.23691 0.02326 4.04773 -0.933744 -0.016215 0.06203
Ba 3.95824 4.18357 4.04206 1.22454 -0.585123 -0.103
Ba 0.02011 4.09383 0.08599 -0.241862 0.090633 -0.765401
Ba 0.0007 0.02169 8.0307 -0.113817 -0.076615 0.754
Ba 4.18219 7.95137 8.11591 -0.383659 1.455169 0.508669
Ba 4.09087 4.12837 8.04292 -0.091331 -0.942675 0.873204
40
Lattice="8.188641 0.000000 0.000000 0.000000 8.188641 0.000000 0.000000 0.000000 8.188641 " Properties=species:S:1:pos:R:3:forces:R:3 energy=-334.53037054 pbc="T T T"
O 1.99536 2.21223 8.11166 0.223093 -0.961942 0.42499
O 2.18801 1.99215 4.20062 0.022206 0.220066 -0.088934
O 2.11034 6.18288 0.14636 -0.368859 -0.295186 -0.487624
O 2.03262 6.41288 4.07436 0.229567 -0.940191 0.955979
O 6.3566 1.96131 8.0636 -0.45096 0.215572 -0.069132
O 6.19211 2.25513 3.97689 -0.186009 -0.444075 -0.070781
O 6.0986 6.20971 8.11008 0.496327 0.614394 0.107743
O 6.25288 6.19089 3.95518 -0.272401 -0.543673 -0.14661
O 2.05459 8.17037 2.01479 -0.208841 -0.116004 -0.044825
O 2.16551 8.13913 6.21047 -0.257986 0.039128 0.427535
O 2.03245 4.11709 2.33488 0.371978 0.553582 -0.883121
O 2.04549 4.00369 6.30298 0.746153 1.533328 -0.986156
O 6.03538 0.03033 2.08942 0.901305 1.062381 -0.082581
O 6.27482 8.17058 5.89941 -0.405559 0.605521 0.989919
O 6.27883 4.21142 1.92307 -0.576208 -0.716317 0.198331
O 6.20633 4.32781 6.22959 0.084366 -1.162548 -0.499282
O 8.16895 1.92697 2.08022 -0.252516 0.528327 -0.157179
O 0.01948 2.22522 5.96473 0.933784 -0.731883 0.561815
O 0.08108 5.94656 2.13509 -0.186022 1.578884 -1.084894
O 0.21358 6.14851 6.11249 -0.05635 0.140178 0.39805
O 4.20721 2.16466 1.8382 0.090972 -0.256793 0.652337
O 4.3606 1.9825 6.05406 -1.596344 0.583018 0.431893
O 4.16357 6.19231 2.0157 0.496929 -0.586823 0.150505
O 4.15539 6.00928 6.07467 -0.255252 0.85726 0.056531
Ti 1.96307 2.27413 6.13506 -1.089131 -1.365278 -0.798998
Ti 1.90524 6.25936 1.98784 1.096696 -1.314068 0.936446
Ti 2.03718 6.33049 6.04193 -0.488801 -0.460708 -0.856039
Ti 6.20757 2.00049 2.19625 -0.251061 -1.291815 -1.063567
Ti 6.10516 1.978 6.25873 1.529398 -0.980447 -0.284532
Ti 6.18055 6.08241 2.09079 -1.650928 0.457683 0.753388
Ti 6.03623 6.16044 6.2539 -0.034278 -0.178011 -0.257352
Zr 2.09656 2.14303 2.02648 -0.21416 -0.080929 0.744413
Ba 8.12 8.14409 4.09649 0.328865 0.345187 0.088786
Ba 8.18161 4.09699 4.01702 -0.073116 0.407712 0.846512
Ba 4.04188 8.07575 4.07267 0.704468 0.370676 0.112198
Ba 4.20141 3.99373 4.06582 -0.25942 0.960208 0.292403
Ba 8.08599 4.04254 8.1305 0.379323 0.646788 -0.127199
Ba 0.14991 0.01392 8.17154 -1.208632 0.100545 -0.401394
Ba 3.91533 8.1237 0.11942 1.66392 0.361547 -0.437351
Ba 4.12107 4.17187 0.06741 0.043485 0.244704 -0.302222
40
Lattice="8.037658 0.000000 0.000000 -0.750238 8.085655 0.000000 -0.601506 -0.505752 8.318774 " Properties=species:S:1:pos:R:3:forces:R:3 energy=-330.56310857 pbc="T T T"
O 1.95154 1.88114 0.27048 -0.317527 -0.340037 -1.112638
O 1.56528 1.73095 4.36579 -0.128358 -0.60489 -1.990259
O 1.54737 5.87918 0.21135 -0.907216 0.08772 -0.2887
O 1.0667 5.75434 4.29324 0.474623 -0.18114 -0.849035
O 5.32415 1.66025 8.06599 -0.408077 -0.737717 1.556279
O 5.82828 1.66721 4.02505 -0.944576 -0.22857 0.211666
O 4.92465 5.53009 8.04242 -0.184175 -0.429437 0.803612
O 5.21051 5.93328 4.01913 -0.209313 -0.608179 -0.248372
O 1.15241 7.74778 2.20371 -0.305074 -0.024523 -0.044941
O 0.93628 7.57742 6.27216 -0.075078 0.050321 0.136004
O 1.53361 3.65466 2.20075 -0.366422 0.888156 0.0333
O 1.30207 3.47434 6.3016 -0.640156 0.603943 0.036886
O 5.18037 7.76955 1.89856 0.130344 0.926968 0.099801
O 4.73966 7.57119 6.20322 0.390096 0.556995 0.126788
O 5.63951 3.76039 2.16262 -0.534878 -0.355961 -0.445656
O 5.2085 3.64873 6.03985 0.339951 -0.562663 0.117651
O -0.28399 1.70818 2.13966 0.099339 -0.221065 -0.629738
O -0.5286 1.4403 6.2592 0.407835 0.12276 0.00986
O 7.27676 5.88415 2.00151 0.379233 -0.309278 0.220837
O 7.00837 5.67058 6.22665 0.177674 -0.176546 0.01335
O 3.84562 1.60328 2.14046 -0.320502 0.411889 0.215332
O 3.46736 1.63664 6.13167 -0.958867 -0.448589 0.328917
O 3.25287 5.79485 2.12211 1.079178 -0.025965 0.287043
O 2.95325 5.59543 6.2298 -0.133232 -0.113206 -0.265579
Ti 1.5558 1.81512 1.99722 0.718832 0.373227 0.703056
Ti 1.32453 1.58248 6.09217 -0.931512 0.561061 1.219369
Ti 1.20508 5.86823 2.01233 1.4586 1.696916 -0.364564
Ti 1.10617 5.6716 6.08378 -0.062872 0.670921 0.609327
Ti 5.63341 1.84429 2.23024 0.470346 1.170501 0.514055
Ti 5.21773 1.726 6.32273 2.163219 0.190989 -1.236923
Ti 5.27249 5.99514 2.17555 -1.075879 -1.293389 0.37158
Ti 5.10352 5.70833 6.23091 -0.086483 0.179066 0.429285
Ba 6.96289 7.81172 4.08018 0.616438 0.247523 0.734868
Ba -0.56786 3.81239 4.11739 -0.931871 -0.930057 0.162905
Ba 3.74605 -0.2536 4.25358 -0.378518 -0.616928 -0.845883
Ba 3.36286 3.74626 4.11864 0.065237 0.232592 -0.032062
Ba 6.92823 3.6467 8.30658 0.312745 -0.370803 -0.520938
Ba 7.95846 -0.00106 0.01823 0.24777 0.011594 -0.685512
Ba 2.65056 7.57198 8.3087 -0.049424 -0.402134 0.070339
Ba 2.94241 3.57925 8.2626 0.418549 -0.002066 0.548692
40
Lattice="8.035945 0.000000 0.000000 -0.750078 8.083932 0.000000 -0.601378 -0.505644 8.317001 " Properties=species:S:1:pos:R:3:forces:R:3 energy=-329.88998339 pbc="T T T"
O 1.16111 1.57665 8.28315 0.41134 -0.025327 -1.568569
O 1.45757 1.64289 4.09997 0.861095 0.737709 -0.372956
O 1.4743 5.72405 0.09171 0.052074 1.670394 -1.308628
O 0.87808 5.86834 4.25851 0.381402 -0.307129 0.259629
O 5.22473 1.52028 8.30134 0.07729 0.356776 -1.529841
O 5.62776 1.71516 3.91694 -0.536382 0.397937 0.015392
O 4.84341 5.44417 8.10579 -0.079047 0.510347 0.630834
O 5.25348 5.81347 4.05466 -0.522965 -0.10212 -0.848438
O 1.27352 7.88351 2.00719 -0.664947 0.477199 -0.338742
O 0.83906 7.65497 6.23001 -0.722767 -0.528187 0.518096
O 1.57112 4.02783 2.15611 -1.122293 -1.706523 0.15874
O 1.1924 3.57271 6.13724 0.259446 -0.099587 0.251083
O 5.66928 -0.10456 1.99763 0.610846 0.27786 -0.368884
O 4.70243 7.63584 6.24911 0.713732 -0.104469 0.12171
O 5.66926 3.99276 1.9547 -0.895534 -0.933008 0.286808
O 5.12584 3.61804 5.98678 0.667506 -0.923285 1.200667
O -0.21624 1.90542 2.07025 -0.631508 -0.381714 -0.626231
O 7.33593 1.55852 6.17079 -0.775554 0.646364 0.391781
O 7.16788 6.03568 1.99602 0.597127 0.596868 -0.282371
O 6.99067 5.47504 6.25143 0.512001 0.905879 0.338873
O 3.63196 2.01072 1.88904 1.130481 -0.199128 0.79567
O 3.38203 1.63729 6.1206 -0.366267 0.118246 0.590489
O 3.21986 5.8952 2.12825 1.048143 0.263858 -0.133296
O 2.98585 5.67911 6.08516 -0.492376 -0.376928 0.404822
Ti 1.56683 1.92067 2.23395 0.319204 0.673889 -0.183616
Ti 1.47275 1.78676 6.33174 -0.755786 -0.909397 0.262358
Ti 1.35329 6.00408 1.83758 0.321462 -1.139838 1.728422
Ti 0.77719 5.78626 6.05798 0.811443 -0.031907 -0.646894
Ti 5.53081 1.90419 2.08525 -0.194333 -1.200825 0.18084
Ti 5.42484 1.78168 6.35574 -0.24105 -1.224769 -0.047049
Ti 5.31254 5.87642 2.1577 0.697106 0.6239 1.232541
Ti 4.80326 5.72171 6.33413 0.598033 0.678554 -0.855661
Ba -1.04442 7.80273 4.17955 -0.468766 0.337997 -0.276525
Ba 7.25539 3.746 4.17508 0.266787 0.154996 -0.297318
Ba 3.05042 7.83352 4.04699 -0.300069 -0.037888 0.435793
Ba 3.23151 3.87262 4.24298 -0.215153 -0.341427 -0.862847
Ba -0.3096 3.94214 0.03548 -0.103175 -0.019208 0.265832
Ba -1.28798 7.4573 8.24128 -0.468323 0.804368 0.356443
Ba 2.59974 7.50999 8.19485 0.597954 0.589899 0.493977
Ba 3.78124 4.0031 0.11873 -1.378181 -0.230377 -0.372933
40
Lattice="8.062254 0.000000 0.000000 -0.752534 8.110398 0.000000 -0.603347 -0.507300 8.344230 " Properties=species:S:1:pos:R:3:forces:R:3 energy=-329.65323167 pbc="T T T"
O 1.21058 1.63706 8.3135 1.136772 -0.693349 -0.840392
O 1.55327 1.73295 3.87544 -0.224428 0.595626 0.834079
O 0.82912 5.51688 8.07737 0.337853 0.752611 0.71336
O 1.22116 5.77095 3.99863 0.159922 0.005102 0.364705
O 5.22492 1.58749 8.29384 -0.264143 0.488698 0.114409
O 5.71148 1.77783 4.16268 -0.37834 -0.437831 -0.922316
O 5.12702 5.50211 8.07225 -0.795796 0.583407 -0.111299
O 5.1294 5.85435 4.09 0.157007 0.309356 0.445175
O 1.03872 7.8933 2.06369 0.889967 -1.20306 -0.411384
O 1.46692 -0.33042 6.19676 0.240876 0.788652 0.038727
O 1.68712 3.90145 1.94078 -0.379333 0.259034 0.474332
O 1.00337 3.78082 6.19275 0.359921 -2.161899 -0.841769
O 6.00159 -0.0986 2.12677 -0.335336 -0.726752 -0.443185
O 5.28902 -0.12223 6.41787 0.517123 -2.344119 -1.226021
O 5.51888 3.9383 2.16151 -0.18507 0.146221 -0.157456
O 5.13905 3.70227 6.14729 0.514299 0.876448 -0.241936
O -0.25821 1.92063 1.79441 -0.152773 0.362582 0.855602
O -0.6448 1.59205 6.50794 -0.935079 0.21027 -1.397099
O -0.62747 5.79714 2.04945 -0.191272 0.132108 0.294354
O 7.01061 5.8146 6.09154 -0.690662 -0.136296 -0.513987
O 3.78602 1.74974 2.14644 0.669533 0.17259 -0.445846
O 3.25185 1.69434 6.30633 0.143616 0.56297 -0.315049
O 3.46751 5.84061 2.00663 0.01905 1.015739 -0.056005
O 2.81537 5.71361 6.21518 4.51029 0.523338 -0.266547
Ti 1.58244 2.02541 2.07003 -0.666788 -0.836955 -0.297087
Ti 1.45928 1.54003 6.45246 -0.47768 -0.349686 0.497008
Ti 1.22989 5.95727 2.18637 -1.210444 0.836321 -0.601161
Ti 1.14947 5.54379 6.20606 -4.102484 0.688591 1.156836
Ti 5.63514 1.83609 2.17527 -0.342761 -0.203879 0.025229
Ti 5.51011 1.62578 6.41725 -0.411771 0.45162 0.652029
Ti 5.2918 5.92407 2.25244 -0.027003 -0.544293 0.023242
Ti 5.23983 5.60497 6.22364 -0.854083 -1.735824 0.80993
Ba 6.93979 7.80875 4.17948 1.128806 1.029674 -0.149058
Ba 7.31538 3.70765 4.10829 0.885473 0.559097 0.249364
Ba 2.93051 7.81995 4.22898 -0.100606 0.893784 -0.033167
Ba 3.31834 3.77258 4.16136 0.001862 -0.408813 -0.003862
Ba -0.92322 3.60837 8.26699 0.219512 -0.259903 0.553864
Ba 7.37636 -0.4714 8.13165 0.911799 0.194012 1.721859
Ba 3.14467 7.99094 0.04905 0.453096 0.68865 0.133024
Ba 3.78924 4.16672 0.04896 -0.530924 -1.083842 -0.682504
40
Lattice="8.045158 0.000000 0.000000 -0.750938 8.093200 0.000000 -0.602067 -0.506224 8.326536 " Properties=species:S:1:pos:R:3:forces:R:3 energy=-329.84427005 pbc="T T T"
O 1.35538 1.55096 8.30863 -0.58614 -0.12161 -1.218024
O 1.37262 1.65498 4.13896 0.882381 1.222505 -1.413501
O 0.63894 5.68152 7.96149 0.517161 -0.186431 1.601882
O 1.14016 5.85764 3.91353 0.040408 -0.115047 -0.234952
O 5.14218 1.65969 8.21131 0.285172 0.240685 -0.320622
O 5.60585 1.96459 4.10026 -0.229308 -1.020519 -0.031424
O 4.56608 5.7162 7.92847 1.215447 0.379548 2.113901
O 5.01173 6.04539 4.02551 -0.011543 -0.654089 -0.043578
O 1.72696 -0.03949 1.90317 0.397857 -0.441618 0.634562
O 1.45728 -0.28644 5.99331 0.349692 0.162945 1.271833
O 1.61269 3.93242 1.98599 -0.41171 0.927298 0.35494
O 1.16967 3.65535 6.16154 -0.361166 0.622233 -0.153996
O 5.98141 -0.00578 1.99433 -0.671663 -0.061949 0.196925
O 5.59661 -0.13924 6.2135 -0.698489 -0.696262 -0.428971
O 5.28512 4.00592 2.12685 0.345258 0.324508 0.048551
O 4.89472 3.79077 6.0875 1.140801 0.239012 0.186673
O -0.2852 1.99405 2.00002 0.284421 0.051858 0.097408
O 7.38107 1.76428 6.19837 0.664707 -0.113056 0.47048
O 7.13117 5.95331 2.05707 0.522619 -0.242738 -0.374441
O 6.85451 5.85163 6.15872 0.257697 -0.720186 -0.713497
O 3.75683 1.73215 2.19622 -0.764813 0.252682 -0.134962
O 3.36183 1.6415 6.04277 0.126218 0.014578 0.562426
O 3.19929 6.06881 1.89087 -0.282297 0.285067 0.185037
O 2.82576 5.74918 6.16986 -0.737258 0.579045 -0.880297
Ti 1.63294 1.77896 2.18497 -0.6145 -0.607767 0.099297
Ti 1.20352 1.5979 6.31654 0.019665 -0.186142 0.160849
Ti 1.36396 5.8532 2.11982 0.481871 0.14192 0.172124
Ti 0.95071 5.60409 6.22373 0.955679 -0.064707 0.331614
Ti 5.59868 1.79332 2.31073 0.038947 -0.332047 -1.109266
Ti 5.21057 1.62282 6.35279 0.929073 0.454115 0.085842
Ti 5.26107 5.87105 2.23743 -0.064611 0.311334 0.168481
Ti 5.01505 5.63926 6.24252 -0.332604 -0.293663 -1.052534
Ba -1.00788 7.82449 4.16738 -0.924174 -0.232285 -0.449884
Ba 7.29746 3.79227 4.012 0.54592 0.382484 1.02248
Ba 2.99559 7.81665 4.22737 -0.564869 -0.028108 -0.177689
Ba 3.10861 3.70694 4.20164 0.889629 0.358486 0.31345
Ba -0.15735 3.89438 0.16825 -1.049256 -0.189351 -1.379395
Ba -1.3233 7.51832 8.29569 -0.76534 0.182664 -0.086779
Ba 3.42949 -0.42235 8.24365 -0.385355 -0.533067 0.191797
Ba 3.28093 3.54511 8.23212 -1.435524 -0.292323 -0.066743
