39
Lattice="7.713933 0.000000 0.000000 0.350921 9.102522 0.000000 -0.040378 -0.247432 7.945323 " Properties=species:S:1:pos:R:3:forces:R:3 energy=-320.50913384 pbc="T T T"
O 2.0261 2.20079 0.00985 -0.41423 -0.035361 -0.633577
O 2.15788 2.00203 3.89825 -0.959668 0.470203 1.355627
O 2.14993 6.44402 7.74733 0.458822 -0.460327 1.211379
O 2.27025 6.68651 3.90469 -0.271668 -0.015994 0.448136
O 5.88183 2.15371 0.12428 0.292672 0.645406 -1.749231
O 5.88569 2.10541 3.82417 -0.34651 0.696123 2.36096
O 5.85747 6.70682 7.8977 0.157782 -0.365849 -0.311793
O 5.94068 6.85698 4.07243 -0.12382 -0.879138 0.166661
O 2.37303 8.89619 1.96568 -0.698361 -1.548265 -0.319569
O 2.41687 8.52145 6.20024 -0.482508 0.544823 -1.650919
O 1.86344 4.28447 2.03557 0.745916 -1.443541 -0.225946
O 2.06623 4.1257 6.04328 -0.078707 -0.803112 -0.673815
O 6.14253 8.98851 1.99329 -0.142761 0.855178 -0.098591
O 5.82027 0.07819 5.83755 0.174707 1.353686 0.684941
O 6.06649 4.72681 1.93804 -0.482652 1.212499 0.084192
O 5.8067 4.66653 6.00273 -0.050098 -1.449712 -0.428318
O 7.73863 1.99563 2.09137 1.456813 0.339949 -0.656047
O 7.69467 2.28014 5.93274 1.48086 -0.150633 0.045775
O 7.95341 6.88665 1.92161 0.516083 -0.118629 0.061802
O 7.89363 6.69135 5.92139 0.647519 -0.3531 -0.062845
O 3.92841 2.05153 1.98557 -0.554284 0.755326 -0.387691
O 4.01174 2.18609 6.00855 -0.852981 0.113739 -0.017583
O 4.11136 6.71798 1.99456 -0.56652 -0.113742 -0.316591
Ti 1.93948 2.33864 1.92969 0.07203 0.434748 1.009497
Ti 2.01645 2.28622 5.95337 0.787284 1.733459 -0.697949
Ti 2.20008 6.98443 2.03385 -0.58495 0.973222 -0.757336
Ti 2.07637 6.78529 5.95372 -0.127512 -0.279583 0.658634
Ti 5.81751 1.88837 2.05035 0.157703 -1.527945 -0.922593
Ti 5.8846 1.95125 6.03359 -1.241801 -2.307565 -0.382299
Ti 5.96672 6.74245 1.84911 1.277657 -0.568552 0.387298
Ti 6.07153 6.38831 5.91607 -0.22828 2.535616 -0.509942
Ba 8.00903 8.90455 3.94325 0.17098 0.225022 -0.158207
Ba 7.74227 4.36193 3.94643 0.44964 -0.176396 -0.317675
Ba 4.25119 8.94361 3.79197 -0.414205 0.520468 1.065685
Ba 3.99308 4.38389 3.78624 -0.199779 -0.234138 0.295945
Ba 7.83708 4.61893 0.01175 0.825534 -0.080162 0.176982
Ba -0.00129 -0.13654 7.88771 -0.060107 -0.455398 0.565131
Ba 3.87149 -0.13395 7.87077 0.287233 0.064428 0.503517
Ba 4.15752 4.47415 0.03382 -1.077833 -0.106752 0.196358
39
Lattice="7.637121 0.000000 0.000000 0.347427 9.011883 0.000000 -0.039976 -0.244969 7.866207 " Properties=species:S:1:pos:R:3:forces:R:3 energy=-320.01292941 pbc="T T T"
O 1.98865 2.2132 7.80573 0.216469 -0.632376 0.648838
O 2.072 2.07727 3.87955 -0.362609 0.36172 -0.967758
O 2.14395 6.37603 7.79623 -0.388178 0.068063 -0.041045
O 2.30324 6.47211 3.99408 -0.336173 0.02389 0.399393
O 5.73098 1.86855 7.83453 0.42909 1.156616 -0.035646
O 5.86717 2.35669 3.89036 0.157206 -0.427263 0.017168
O 5.7926 6.55825 7.72082 0.329209 0.866742 1.892628
O 5.69388 6.58394 4.10576 -0.172534 0.650542 -2.08502
O 2.05875 8.5033 1.99372 0.430265 -0.128377 -0.470122
O 2.34487 8.50887 5.86299 0.210611 2.549975 0.406107
O 2.04122 4.52054 1.9221 -0.311078 -1.3106 0.134091
O 2.09221 4.0635 5.7726 -0.426479 1.643911 0.411363
O 5.71817 0.19154 1.91899 -0.024037 -0.726752 0.634372
O 5.6852 0.16939 5.82657 0.289672 -1.373638 -0.514757
O 5.85147 4.80067 1.74806 0.609627 -1.483994 0.653902
O 5.82347 4.62508 5.87801 -0.204345 -2.403984 0.029863
O 0.19975 2.10622 1.85278 -1.329838 0.323968 0.381732
O 0.11555 2.07218 5.84498 -0.316411 0.092837 0.047233
O 7.74919 6.61088 2.2349 0.270836 0.387588 -0.660541
O 0.23244 6.50076 5.787 -0.766379 0.430594 0.38245
O 3.85029 2.42403 1.82779 2.344001 -0.978709 0.619553
O 3.92897 2.11857 5.74501 -0.201461 0.241733 0.45661
O 3.97371 6.61689 1.91275 0.896733 0.556388 -0.028828
Ti 2.08017 2.58521 1.99291 -1.624802 0.551566 0.119561
Ti 2.02591 2.34703 5.97357 0.079086 -1.523378 -1.857293
Ti 2.07502 6.57261 1.95953 0.98628 1.483428 1.0352
Ti 2.05498 6.82893 5.94783 0.565761 -3.506306 -1.878298
Ti 5.86961 1.98405 2.10399 0.19816 0.92171 -3.135248
Ti 5.80597 1.91265 5.91615 -0.21681 -0.917278 0.996432
Ti 5.89755 6.53947 1.93129 -1.002861 -0.046284 -0.082243
Ti 5.97192 6.35219 5.87799 0.838369 1.816339 -0.216699
Ba 0.02649 0.01396 3.84738 0.650635 -0.463301 0.287271
Ba 7.79194 4.4461 3.84909 0.150603 0.082371 0.319404
Ba 3.79181 -0.04633 3.78542 -0.709 -0.569764 0.647695
Ba 4.04904 4.24922 4.01196 -0.741251 1.007447 -0.982571
Ba 7.67856 4.13588 7.67269 0.535509 0.322534 1.101746
Ba 0.31998 8.68516 7.82763 -0.424449 0.628643 0.490174
Ba 3.75116 -0.00167 0.10127 0.155736 0.112055 -0.214179
Ba 4.03056 4.20915 7.74804 -0.785159 0.211344 1.057461
39
Lattice="7.704756 0.000000 0.000000 0.350504 9.091694 0.000000 -0.040330 -0.247138 7.935871 " Properties=species:S:1:pos:R:3:forces:R:3 energy=-320.50499544 pbc="T T T"
O 1.91447 1.99851 7.8548 -0.360158 -0.04293 -0.018721
O 2.04178 2.00052 3.90176 -0.005304 0.349513 0.083222
O 2.29841 6.53194 7.76621 -0.034338 0.016406 1.473251
O 2.17726 6.5723 4.02885 -0.212021 0.767872 -1.068884
O 6.01633 2.32766 0.07805 -0.333198 0.081553 -1.081657
O 5.75499 2.27399 3.90699 0.104986 -0.260309 -0.344376
O 5.97253 6.82392 7.82807 -0.338528 0.000247 0.295531
O 5.96265 6.67543 4.12963 0.12182 0.937629 -1.285023
O 2.30823 8.90956 1.8425 -0.43183 -1.070492 0.744188
O 2.21726 8.58082 5.97434 0.067643 1.476586 -0.620356
O 2.07208 4.39297 1.88935 -0.354522 -1.614976 0.579374
O 2.13345 4.20175 5.85219 0.037693 -1.782859 0.229651
O 5.70242 0.12357 1.89838 0.696504 -0.118739 0.572618
O 5.91863 0.06494 5.87697 -0.161592 0.618553 0.385168
O 6.03381 5.03768 1.88323 0.054313 -1.70082 -0.004652
O 5.90226 4.61169 6.03293 -0.767651 0.365191 -0.213912
O 0.11047 2.16634 2.07256 -0.628319 -0.192287 -0.2092
O 0.09212 2.22244 5.82902 -1.027252 -0.534775 0.318862
O 0.26429 7.00858 1.8708 0.019525 -0.025729 0.399468
O 0.27276 6.21663 5.98575 -0.105543 1.445668 -0.029823
O 3.8637 2.14188 1.80281 0.636181 0.324153 0.511334
O 3.82432 1.92803 5.96289 1.865087 0.025378 0.367658
O 4.06518 6.8608 2.10695 0.275214 0.122598 -0.441287
Ti 1.98279 2.39239 2.03 1.156587 0.97395 -1.552009
Ti 2.00147 2.24381 5.95015 -0.459704 1.822293 0.262442
Ti 2.15131 7.00494 1.94511 1.590281 -0.030552 -0.417114
Ti 2.06944 6.83216 5.92295 0.260468 -2.477438 -0.466159
Ti 5.90482 1.91249 1.99045 -1.354482 0.158961 0.92907
Ti 5.85077 1.89268 6.10803 0.310817 -0.587986 -1.862842
Ti 6.02322 6.74046 2.03265 -0.83257 0.570227 -0.355735
Ti 6.15134 6.46815 5.97669 0.113199 -1.505287 0.466016
Ba 0.41075 8.93988 3.89162 -0.47757 0.65329 0.207171
Ba 7.85131 4.2823 4.01152 -0.573526 0.363222 -0.061199
Ba 3.7918 -0.06716 3.90623 0.473576 0.133647 0.10251
Ba 3.87057 4.32957 3.85524 1.001715 0.445839 0.011116
Ba 7.82951 4.3211 7.90777 0.349225 -0.099417 0.173735
Ba 0.10195 -0.21872 7.8688 -0.910591 0.215718 0.564591
Ba 3.77703 -0.20503 7.89938 0.318259 0.006764 0.184284
Ba 3.95086 4.24598 7.76434 -0.084394 0.169335 1.17169
39
Lattice="7.677233 0.000000 0.000000 0.349252 9.059216 0.000000 -0.040185 -0.246255 7.907522 " Properties=species:S:1:pos:R:3:forces:R:3 energy=-321.02987848 pbc="T T T"
O 2.09988 2.16055 0.02724 -0.383215 0.374222 -0.618795
O 1.90571 2.02459 3.94608 -0.033061 0.316444 0.536473
O 2.10057 6.56182 0.03985 0.454273 0.179543 0.155496
O 2.33021 6.47888 4.07118 -0.253726 0.268999 -1.328354
O 5.79018 1.94891 7.83976 -0.110808 0.47335 0.930503
O 6.00332 2.38708 3.78292 -0.28095 0.228803 1.143959
O 5.91538 6.78725 7.89629 0.375216 0.233473 -0.400876
O 5.83357 6.73113 4.12196 0.272948 0.338995 -0.335894
O 2.17978 8.80653 1.77848 0.099541 -0.547222 1.050332
O 2.52244 8.38627 5.99272 -0.964711 -0.386081 -0.460548
O 2.12264 4.1941 1.88206 -0.721335 -0.777976 1.118386
O 2.1218 4.28141 5.9638 -0.430159 0.18327 -0.721356
O 5.86501 0.04349 2.07823 0.027508 -1.357912 0.069956
O 5.7515 0.38615 5.71143 0.057653 -2.610581 -0.265773
O 5.90851 4.96682 1.8209 0.536898 -0.500435 0.368554
O 5.7334 4.59444 5.96967 0.371746 0.650432 0.054058
O 0.13411 2.1259 1.98808 -0.823505 0.0824 -0.681902
O 0.06846 2.21423 5.98468 0.584602 0.354042 -0.284338
O 0.30068 6.78226 2.0878 -0.661158 -0.114991 0.402336
O 0.33442 6.54189 5.93081 -2.580887 0.365005 -0.011729
O 3.9659 2.02738 2.12287 -0.417665 0.018647 -0.385983
O 3.83087 2.18922 5.8299 0.41404 0.300881 -0.157779
O 4.0546 6.79706 1.96253 0.052625 0.406858 0.218751
Ti 1.92381 2.30336 2.02602 2.197075 0.717135 -1.750683
Ti 1.98692 2.47728 5.81139 -0.067451 -1.253084 0.774271
Ti 2.16481 6.93051 1.87107 0.180692 0.273293 -0.790763
Ti 2.11239 6.5863 5.87401 1.333539 0.323412 0.838731
Ti 5.85766 1.81145 2.05464 -0.794741 1.595099 -0.76332
Ti 5.77636 2.08003 5.93816 0.432967 0.493216 0.170011
Ti 5.97822 6.74477 1.90919 -0.003235 -0.578333 -0.386024
Ti 6.00022 6.42045 5.95549 0.607802 -1.497727 0.119218
Ba 0.37171 8.80392 4.02864 -0.101144 0.456314 -0.068548
Ba 7.82903 4.43493 3.76688 -0.513439 0.207892 0.239153
Ba 4.06172 8.93661 3.85728 0.374373 0.085911 0.532605
Ba 4.00843 4.44423 3.90228 0.565819 -0.358227 -0.734254
Ba 0.2139 4.18569 7.85544 -0.904668 0.321528 0.606174
Ba 0.09365 -0.18953 7.77533 -0.706142 0.395069 -0.041299
Ba 3.73118 -0.19229 7.85973 1.013122 0.547828 0.337292
Ba 3.9283 4.4373 0.04129 0.799563 -0.20949 0.521958
39
Lattice="7.677254 0.000000 0.000000 0.349253 9.059240 0.000000 -0.040186 -0.246256 7.907544 " Properties=species:S:1:pos:R:3:forces:R:3 energy=-320.45032407 pbc="T T T"
O 1.93539 1.9742 0.00448 -0.412112 0.536845 0.991887
O 2.0014 2.09223 3.91338 0.198757 0.337926 0.218013
O 2.39593 6.71016 7.70904 -0.784455 -1.024271 0.608944
O 2.18846 6.3541 3.91389 0.470298 0.214177 -0.37245
O 5.83056 2.28461 7.85052 0.406427 -0.051393 0.434681
O 5.7054 2.11533 4.00359 0.308684 0.204193 0.330532
O 6.11905 7.00741 0.06031 -0.186426 -0.400715 -1.201798
O 5.93384 6.89786 3.91172 0.142093 -0.340159 -0.854397
O 2.27727 8.47248 2.05578 -0.036182 0.937428 -0.093796
O 2.18786 8.69958 5.87766 0.432579 -0.542611 -0.458361
O 2.045 4.23057 1.87224 -0.429625 1.346631 -0.273235
O 2.14146 4.08148 6.154 -1.080811 -0.537217 -0.851337
O 5.69617 0.39449 1.75739 0.405586 -0.709264 0.580952
O 5.58019 0.02088 6.02537 1.062234 -0.924019 -0.095192
O 6.1291 4.61089 2.04588 -0.774598 0.237569 0.043814
O 5.86952 4.75415 5.94922 0.010531 1.508712 -0.376917
O 0.0791 2.13255 2.08309 0.108082 0.421036 -0.574223
O 0.06459 1.9668 6.00532 -0.133451 0.18789 -0.567332
O 0.37976 6.65453 1.79971 -1.66641 -0.414188 0.173517
O 0.25271 6.65477 5.72319 -0.083975 0.131193 0.526053
O 3.92611 2.36482 1.93507 -0.650494 0.016965 -0.208999
O 3.80205 2.04165 6.18396 1.612971 -0.383944 -0.953888
O 4.08936 6.63779 1.67602 1.792107 -0.968439 0.973556
Ti 1.92718 2.48258 1.88466 0.89049 -1.411095 0.476539
Ti 2.0497 2.20766 6.04579 -0.604133 0.216033 -1.009108
Ti 2.21925 6.67812 1.94196 -0.330763 1.043305 1.353145
Ti 2.06831 6.87121 5.96254 0.94897 0.607904 -2.010079
Ti 5.7945 2.15026 1.93605 -0.153549 -0.188855 -0.177117
Ti 5.90006 1.80332 5.96716 -1.419212 0.122154 -0.032749
Ti 5.98621 6.41566 2.05228 0.370207 0.732715 -0.063927
Ti 6.12866 6.684 6.03963 -1.226612 -1.769414 -0.197499
Ba 0.06445 0.01231 3.72987 -0.418409 -0.280691 0.734837
Ba 0.21976 4.38714 4.00861 -0.333518 0.076201 0.258653
Ba 3.80188 -0.06308 3.88126 0.274178 0.169961 0.089132
Ba 3.87524 4.25087 3.86363 0.779975 0.182351 0.920249
Ba 7.72709 4.24619 7.74974 -0.094431 0.126421 0.576555
Ba 0.40493 9.01027 0.02162 -0.257006 0.305995 0.377316
Ba 4.10143 9.03896 0.06169 0.326841 0.200152 0.067106
Ba 4.0164 4.27672 7.76417 0.535162 0.082519 0.636925
39
Lattice="7.705253 0.000000 0.000000 0.350527 9.092280 0.000000 -0.040332 -0.247154 7.936383 " Properties=species:S:1:pos:R:3:forces:R:3 energy=-320.77632944 pbc="T T T"
O 2.11378 2.20205 0.15906 -0.467964 -0.270591 -1.301331
O 1.84639 2.05769 4.1298 0.286147 -0.113096 -0.936216
O 2.26332 6.72573 7.82251 0.070447 -1.449461 0.557864
O 2.28568 6.50782 3.82726 -0.165196 0.271597 0.744614
O 5.92172 2.39015 0.0929 -0.614271 -0.445211 -0.167886
O 5.9591 2.16512 4.00445 -0.4241 0.195474 0.575018
O 5.9452 6.58387 7.80948 0.196046 0.307346 0.767991
O 5.91608 6.75224 4.00784 0.503542 -0.210582 -1.040613
O 2.39298 8.81833 2.05941 -1.119832 -0.340882 -0.685467
O 2.60214 8.47507 5.99476 -0.550154 0.077437 -1.291197
O 1.96152 4.22338 1.99562 0.479602 0.394963 0.039391
O 1.96258 4.10587 5.992 -0.258874 2.168764 0.00029
O 5.84603 0.17908 2.02653 0.002637 0.575843 -0.343825
O 5.69181 -0.02561 5.78444 0.161238 1.039844 0.878839
O 6.00052 4.61287 2.12581 -0.211251 1.646379 -1.063633
O 5.88479 4.6622 5.93774 0.080844 0.697616 -0.278835
O 0.14697 2.29261 2.01373 -1.815468 -0.785378 0.225994
O 7.69893 1.96208 6.13121 0.306329 0.206472 -0.190652
O 0.29662 6.8779 1.86145 -0.857923 -0.389938 0.225107
O 0.3691 6.90829 5.80827 -1.354008 -0.790062 0.350091
O 3.91699 2.30559 2.10293 1.240068 -0.512022 0.417683
O 3.83557 2.20413 6.05552 1.146501 -0.424237 -0.476441
O 4.15168 6.84905 1.98909 0.980746 -0.633964 -0.614029
Ti 1.96902 2.40259 1.96089 0.452178 0.775702 -0.743381
Ti 1.8872 2.37547 5.89994 1.015561 -2.056121 1.12452
Ti 2.25016 6.97115 1.92506 0.290988 0.669847 0.582019
Ti 2.1974 6.72276 5.90584 -0.270079 1.209039 -0.439373
Ti 5.83535 2.00808 1.97947 0.260166 0.018746 -0.431465
Ti 5.80499 1.83993 5.90198 -0.449017 -0.772729 0.077576
Ti 6.05329 6.51565 2.08231 -0.735326 -0.114346 0.20137
Ti 6.05405 6.51782 5.95661 0.675419 -0.771733 -0.36533
Ba 0.43175 8.92951 3.96982 -0.313879 0.027561 0.013986
Ba 7.72304 4.27249 3.89511 1.068628 0.280206 0.577778
Ba 3.79974 -0.03836 3.82355 0.534823 -0.187268 0.640173
Ba 4.05198 4.35796 3.88609 -0.664215 0.188017 0.176476
Ba 7.80776 4.42145 7.88239 -0.077342 -0.546108 0.613227
Ba 7.99653 8.81866 7.93326 0.431252 0.110712 -0.04763
Ba 3.83188 -0.22097 7.84388 0.060646 0.177056 0.885298
Ba 3.98927 4.23894 7.84442 0.10509 -0.224896 0.742001
39
Lattice="7.682965 0.000000 0.000000 0.349513 9.065980 0.000000 -0.040215 -0.246439 7.913426 " Properties=species:S:1:pos:R:3:forces:R:3 energy=-319.31757214 pbc="T T T"
O 1.95363 1.92226 7.82122 0.290164 -0.257476 0.91284
O 1.8304 2.00526 4.13741 0.394244 -0.329397 -2.076491
O 2.27127 6.7231 0.03266 0.447271 0.160959 -0.116218
O 2.16152 6.71664 4.10985 -0.361945 -0.9812 -2.259584
O 5.77845 2.33675 0.10912 -0.043032 -0.737659 0.145339
O 5.68259 2.22244 4.03219 0.863854 -0.498427 -0.765156
O 5.63242 6.36704 7.87699 0.486148 0.597353 -0.528148
O 6.21435 6.66643 3.81872 -0.767217 0.274434 0.766548
O 2.38751 8.92402 2.0882 -0.351478 -0.681578 -1.016808
O 2.35138 8.36365 5.94387 0.389004 1.644647 0.715164
O 2.05767 4.09171 2.04741 -0.359905 0.499207 0.276374
O 1.9689 4.26944 6.01519 -0.375126 -0.077946 -0.844057
O 5.73989 0.14945 1.99506 -0.364696 -1.817575 -0.165814
O 5.67591 0.13306 5.85462 -0.450307 -1.011914 0.214488
O 5.97352 4.62662 1.94204 0.437549 1.812594 -0.234559
O 6.105 4.41473 5.85711 -0.388278 0.524411 -0.012593
O 0.18898 2.10255 1.91105 -1.703591 -0.235765 0.76934
O 7.66692 1.88127 6.16682 -0.246212 0.686845 -1.319943
O 7.91486 7.00672 1.7226 0.138935 -0.481167 0.730444
O 7.76299 6.75469 6.04246 2.675112 0.237598 0.164965
O 3.96236 2.32922 2.05676 -0.526493 -0.847773 0.274976
O 3.79934 2.41508 6.07941 1.579979 -1.241461 -0.857375
O 4.04113 6.70664 2.19143 0.308367 0.216688 -0.385038
Ti 1.9797 2.29973 2.11697 0.357325 -0.307243 -0.950174
Ti 1.95526 2.39877 5.89317 0.099493 1.047507 1.743062
Ti 2.23964 7.06773 1.7983 -0.468 0.824485 0.997325
Ti 2.107 6.63822 5.86804 -0.697763 -0.747173 0.604363
Ti 5.7639 1.88865 2.01205 0.643166 2.759199 -1.306437
Ti 5.71953 1.88503 5.86484 0.714455 2.064981 1.252019
Ti 6.034 6.6508 1.94745 -0.086452 -1.631235 -0.333994
Ti 6.11941 6.2097 6.06044 -2.584515 -0.242009 0.082751
Ba 7.956 8.91747 3.90846 0.594461 -0.119135 0.385146
Ba 7.77291 4.63099 3.71878 1.302504 -0.903887 0.586385
Ba 4.12387 8.92043 4.00065 -0.08972 -0.394512 -0.124323
Ba 4.24133 4.48725 3.79353 -1.402406 -0.144964 0.805721
Ba 0.16133 4.00522 7.80876 -0.929927 0.160718 1.566924
Ba 0.0063 -0.11301 7.73176 0.192394 0.040519 0.745212
Ba 3.83204 -0.22083 7.80669 -0.328392 0.362926 0.337817
Ba 3.91229 4.42079 0.20198 0.611031 -0.225571 -0.780489
39
Lattice="7.655525 0.000000 0.000000 0.348264 9.033601 0.000000 -0.040072 -0.245559 7.885164 " Properties=species:S:1:pos:R:3:forces:R:3 energy=-321.22038482 pbc="T T T"
O 1.97238 2.14768 0.07932 0.022982 0.421135 -0.982505
O 1.84691 2.10642 3.82516 0.368433 0.118118 0.676313
O 2.14176 6.37106 7.71224 0.450744 -0.033049 0.044719
O 2.29591 6.4856 3.81555 -0.136278 0.134753 1.41845
O 5.74323 2.15386 7.77772 0.071485 0.060732 0.545351
O 5.72181 2.04561 3.93627 0.577108 0.540405 0.341202
O 6.0439 6.60687 7.79833 -0.694204 0.153511 0.359492
O 5.88216 6.84747 3.97541 0.035193 0.139111 -1.101972
O 2.38453 8.59756 1.94769 -0.828731 -0.302724 -0.22942
O 2.47074 8.50623 5.89848 0.00457 0.381169 -0.468096
O 2.02118 4.42976 1.94976 0.369377 0.686757 -0.17341
O 1.79979 4.03735 5.89766 0.924717 -0.768821 0.470106
O 5.76347 0.38702 1.86831 0.253729 -2.766452 -0.092683
O 5.56081 -0.0768 5.98984 0.60164 -0.289324 -0.362418
O 6.00548 4.70928 2.07325 -0.861964 0.794533 -0.279333
O 5.83757 4.75631 5.8332 -0.053214 -0.269385 -0.288223
O 7.67397 2.55465 1.92545 -0.424509 -0.727803 -0.149708
O 0.08864 1.65877 5.94715 -0.034864 0.570407 -0.233697
O 0.28494 6.76197 1.90902 -0.562877 0.095018 0.314674
O 0.28529 6.91171 5.78042 -1.062871 -0.607704 -0.324356
O 3.82647 2.36268 1.99014 1.180409 -0.078646 -0.368474
O 3.8513 1.90504 5.8831 -1.319263 0.931339 0.096406
O 4.1152 6.67318 1.90911 0.414126 -0.145468 -0.40288
Ti 1.95426 2.64588 1.98097 -0.431872 -1.664736 -0.773337
Ti 1.91102 2.20194 6.01947 -0.161908 0.063088 -0.233436
Ti 2.24389 6.75897 1.84323 -1.682887 0.879352 -0.138398
Ti 2.08034 6.78137 5.72958 0.96388 -0.656513 0.79532
Ti 5.79882 2.08078 1.9363 0.199801 2.458206 0.385985
Ti 5.71992 1.73043 5.9305 0.606744 -0.933549 -0.581734
Ti 5.91778 6.54524 2.05163 2.259262 -1.235564 -0.674823
Ti 6.04006 6.54837 5.81901 0.104293 0.438528 1.495839
Ba 0.17214 -0.09936 3.88812 -0.734624 0.263394 -0.482632
Ba 7.76757 4.25461 3.99573 -0.35701 0.335323 -0.347303
Ba 3.82748 -0.08037 3.82356 -0.099678 0.519165 0.188639
Ba 3.95069 4.23932 3.83682 0.200805 0.340083 0.788854
Ba 7.74288 4.65672 0.00244 0.184497 -0.137982 0.179051
Ba 7.93531 8.69689 7.86622 0.547592 0.081317 0.186689
Ba 3.82557 0.0598 0.03893 -0.432815 -0.056835 -0.000249
Ba 4.04218 4.22743 7.73974 -0.461817 0.26911 0.401997
39
Lattice="7.698730 0.000000 0.000000 0.350230 9.084583 0.000000 -0.040298 -0.246945 7.929665 " Properties=species:S:1:pos:R:3:forces:R:3 energy=-320.4872742 pbc="T T T"
O 2.0801 2.1433 0.13897 -0.336242 0.086839 -1.654218
O 1.92135 2.1089 3.88706 0.204919 -0.054653 1.62511
O 2.18237 6.42818 7.73162 0.231692 0.020997 0.858995
O 2.42263 6.65372 3.86755 -0.317083 -0.932286 0.30155
O 5.77464 2.31982 7.87032 0.191579 -0.850802 -0.35779
O 5.72948 2.22581 3.8347 0.801365 -0.175353 1.182752
O 5.83487 6.78936 7.6973 1.052251 -0.494499 0.331178
O 5.90822 6.91577 4.03676 -0.310456 -0.273708 -0.976775
O 2.2485 8.62174 2.03402 0.237222 0.058756 -0.531497
O 2.42865 8.53089 5.83172 -0.214261 -0.631192 0.435651
O 2.08465 4.25451 1.95393 -0.719669 1.379965 0.000985
O 1.94243 4.13464 5.96313 0.422629 -0.736252 -0.484169
O 5.89488 0.18835 1.80248 -1.114039 0.334675 0.447617
O 5.74425 0.03934 5.86275 -0.124104 0.518423 0.537931
O 6.00247 4.87857 1.87209 0.074537 0.059801 0.337143
O 5.71286 4.58413 5.74068 1.036688 1.281639 0.775897
O 7.74996 2.22269 1.97886 -0.726372 0.305246 -0.196913
O 0.17653 1.81615 5.92891 -0.896854 0.579786 0.2877
O 7.92311 6.82974 2.04666 0.555514 -0.440188 -0.560479
O 0.2861 6.62406 5.89802 -0.793565 -0.328039 -0.522551
O 3.85701 2.35455 2.07981 1.169671 -0.658813 -0.579051
O 3.92906 2.05253 5.86264 -1.739233 0.038562 0.186161
O 4.19899 6.75845 1.59913 -1.730457 0.134511 1.268625
Ti 1.91657 2.45084 2.02036 0.783553 -0.63047 -1.169899
Ti 1.94975 2.27547 5.91261 0.327941 0.446067 -0.19045
Ti 2.26 6.81879 1.9741 -0.768369 1.620985 0.202539
Ti 2.11221 6.69525 5.91084 0.360498 0.91129 -0.492324
Ti 5.72529 2.01684 1.99174 1.007413 -0.48954 -0.657101
Ti 5.69312 1.86422 5.95763 2.059446 0.255619 0.292047
Ti 5.99477 6.69597 1.90635 1.317344 -0.475113 0.275054
Ti 6.11939 6.42871 5.87909 -0.640664 -0.753578 -0.428823
Ba 7.66469 -0.10601 3.99095 0.257957 -0.089701 -0.510408
Ba 0.16886 4.39023 3.79423 -0.69066 0.218484 0.467046
Ba 3.82463 -0.00078 3.98978 -0.228415 -0.297736 -0.922878
Ba 3.99582 4.45832 3.85413 0.230111 -0.449856 0.271704
Ba 0.18465 4.21672 7.83956 -0.777407 0.004848 0.495765
Ba 0.42362 9.07893 0.01497 0.077876 0.243382 -0.152065
Ba 4.13184 8.74997 7.82427 -0.21117 0.469166 0.761772
Ba 4.04118 4.48719 0.12357 -0.061186 -0.207263 -0.955833
39
Lattice="7.667330 0.000000 0.000000 0.348801 9.047530 0.000000 -0.040134 -0.245938 7.897322 " Properties=species:S:1:pos:R:3:forces:R:3 energy=-319.91427573 pbc="T T T"
O 1.95388 1.8992 7.88971 -0.71777 0.349762 -0.425237
O 1.89375 1.8879 3.92439 0.326049 0.944921 0.047173
O 2.24361 6.65374 0.02975 -0.500376 -1.036306 -0.796685
O 2.1417 6.52307 4.10689 0.342462 -0.533243 -1.148418
O 5.69898 2.06346 7.88902 0.135317 -0.205316 -0.541109
O 5.64655 2.35343 3.74665 0.407705 -0.931626 1.087815
O 5.97627 6.68849 7.62283 -0.768137 0.127849 2.023354
O 5.87329 6.86415 3.88198 0.781819 -0.39892 0.03892
O 2.24474 8.60301 1.8866 -0.501151 -0.895249 0.42326
O 2.47525 8.40963 6.04733 -0.199175 -0.176191 -0.627163
O 2.06806 4.14318 1.98689 -0.316786 3.343727 0.192573
O 1.89548 4.12387 6.04291 0.554551 0.460548 -0.438284
O 5.82701 -0.04869 1.84147 -0.266605 1.381174 0.456639
O 5.65272 0.20118 5.68596 0.680725 -1.915441 0.573952
O 5.97368 4.77785 1.95644 -0.331907 -0.212983 -0.234034
O 6.07538 4.69394 5.79175 -0.564878 0.352296 -0.022926
O 7.61007 2.16835 1.86276 1.20058 0.239946 0.507636
O 7.66311 2.18189 5.82148 -0.07554 -0.722822 0.270331
O 0.27622 6.50627 1.97911 0.213432 0.320068 0.002202
O 7.8413 7.00474 6.01645 1.702182 -0.783953 -1.131028
O 3.77186 2.23852 1.83715 1.189234 -0.500804 0.620938
O 3.84439 2.13382 5.94051 -0.270444 0.35644 -0.468264
O 4.1291 6.65283 1.86431 -0.742776 -0.298644 0.353516
Ti 1.95512 2.44407 2.0955 -0.597591 -4.517816 -0.780378
Ti 1.93856 2.3052 6.03357 -0.725541 0.146012 -0.897023
Ti 2.15432 6.7183 1.87018 0.972457 3.030525 -0.122126
Ti 2.02315 6.65017 5.91552 0.489647 1.192162 0.690876
Ti 5.77865 1.8814 1.90347 0.159102 -0.327498 -0.634293
Ti 5.71058 1.90865 5.79366 1.131361 2.475031 0.537513
Ti 5.99448 6.58556 1.89373 -0.54828 0.415099 0.27454
Ti 6.11839 6.51571 5.81948 -1.512004 -1.332479 0.186057
Ba 0.40304 8.91068 3.8352 0.253141 0.051077 -0.07597
Ba 0.19431 4.504 3.89523 -0.802299 -0.68188 0.274539
Ba 4.26077 8.85777 3.96495 -1.761559 0.138039 -1.207979
Ba 3.98191 4.2703 3.80128 0.638117 0.680682 0.85932
Ba 0.18017 4.4535 0.11449 -1.212124 -0.213424 -0.782658
Ba 0.01344 -0.14505 7.70943 -0.103026 0.344531 1.00739
Ba 3.78503 -0.08771 7.87835 0.101614 -0.607439 0.468744
Ba 3.9025 4.43996 0.07791 1.238474 -0.057857 -0.563713
