120
Lattice="8.489612 0.000000 0.000000 -4.244806 7.352220 0.000000 0.000000 0.000000 20.756171 " Properties=species:S:1:pos:R:3:forces:R:3 energy=-859.29893227 pbc="T T T"
Li 1.13893 6.16076 2.84391 0.755576 0.005076 0.678122
Li 1.8827 1.84046 8.62271 -0.397794 0.907946 -0.030663
Li 4.85697 1.79816 7.22038 -0.255946 0.00839 -0.729052
Li 5.37384 3.12215 17.39767 -0.244172 -0.475868 -0.728199
Li 0.06163 4.75504 14.18487 -0.037386 0.238281 -0.345686
Li -2.33788 5.28353 2.00173 0.086901 -0.025114 0.357246
Li 1.5421 0.22216 20.08917 0.384638 0.270145 0.74584
Li 7.06747 1.84975 19.68117 0.086233 -0.075365 0.281113
Li 0.79476 3.01147 2.62492 -0.523653 -0.091177 0.062204
Li 3.02958 4.85708 18.67357 0.869461 0.516335 0.024796
Li 7.34145 0.23704 10.33257 0.364701 -0.156082 -0.775711
Li -1.91681 6.90986 11.77917 0.490823 0.414732 -0.015881
Li 5.06551 4.68252 9.00821 -0.426305 1.013836 -0.192632
Li -1.03328 2.2731 12.25277 -0.250429 6e-06 0.211057
Li 2.76639 3.98025 6.07115 0.399043 0.696978 0.218122
Li -1.10319 7.07724 5.08523 0.128649 0.316859 -0.585805
Li 2.23678 2.47912 16.81457 0.35816 -0.583231 -1.143812
Li 5.47931 0.05239 14.93227 0.04306 -0.183529 1.094511
O -0.77545 1.51667 14.23457 0.8206 0.055673 -0.220772
O 5.01218 5.99927 6.51437 0.645783 -0.239165 -0.769753
O 3.53041 5.98073 14.37787 0.399623 0.798881 -0.268667
O 0.85568 1.42981 6.64497 0.080446 0.321316 1.198957
O 1.9258 0.05377 13.99147 -3.131846 -1.048993 -3.589653
O 2.85942 7.20897 6.26613 -0.939882 0.044282 0.546096
O 1.49593 0.43517 16.39857 -0.643892 -0.648935 0.420376
O 6.71869 0.00563 3.89139 1.370839 -0.628348 -3.070032
O 3.93304 5.59843 16.87557 -1.140266 0.217453 -0.792138
O 0.65428 1.05613 4.26891 1.207751 2.223603 -0.034198
O 7.15857 0.72833 16.57527 1.47987 1.801833 -0.916738
O 5.0475 5.74371 3.82152 -0.22248 0.785413 1.19438
O 3.57098 3.90351 0.43561 -0.070051 0.074548 -1.183099
O 4.95263 1.0008 13.41907 0.340131 -0.744954 -0.326227
O 3.60966 1.24795 0.69943 -0.887287 -1.273147 0.141504
O 5.11226 3.73272 13.34517 -0.75752 0.254477 -0.3177
O 5.81361 2.39636 0.62571 1.176023 0.045585 0.028507
O 2.67382 2.23853 13.18137 -1.00627 1.517644 -1.814527
O 5.89166 2.5071 3.1739 -1.601193 -0.386173 1.962538
O 2.43879 2.22286 10.60917 1.605715 0.095504 -0.918958
O 3.47676 0.92718 3.23588 0.320908 -0.517767 0.078237
O 4.66894 4.01141 10.88687 1.504375 0.554255 -0.217657
O 3.56477 3.47673 2.82392 0.421961 -0.557613 2.490182
O 5.049 1.14093 10.86647 -0.50254 0.385669 -0.122274
O -0.85601 6.06432 7.48294 -0.482392 1.697411 0.404369
O 0.75561 3.23246 20.41097 0.048902 0.456016 -0.716255
O -0.95952 3.51205 7.18976 0.487936 1.158308 -0.692692
O 0.82969 6.37932 20.27857 -0.229171 -1.544662 1.260604
O 1.50096 5.06934 7.16537 1.044917 -0.848961 1.898012
O -1.50564 5.16694 20.24867 -1.373645 -0.268179 -1.759589
O 1.55342 4.89129 9.78259 -2.181883 0.775302 1.309772
O -1.49028 4.48171 17.76477 -0.386109 0.027258 0.23353
O -0.71316 3.4385 9.74397 -0.706114 0.989022 0.56261
O 0.43977 6.52008 17.75777 0.484006 -0.051493 1.015732
O -1.0279 6.25768 10.02777 0.2553 0.155775 -1.835686
O 1.40416 4.06203 18.12467 0.023724 -0.610361 -0.638588
O 7.5612 1.44202 8.4503 -0.082363 -1.986962 0.704275
O 4.93593 6.15131 12.21117 0.65063 -2.415461 -0.924699
O 3.289 6.21887 8.704 -0.115678 -0.846306 -0.423718
O 0.64174 1.36616 11.91697 -0.489884 -0.031923 1.216542
O 1.46905 0.07637 8.81271 0.994738 -1.513518 -1.672936
O 6.89264 0.09046 12.08807 -1.878723 0.380825 0.83957
O 1.58927 0.02466 1.6811 2.434246 0.184893 0.260854
O 2.75797 6.81051 18.80027 1.924616 0.058298 0.246877
O 3.59208 6.01423 1.83774 -0.575411 -3.178316 -0.48884
O 0.3461 1.68505 18.47327 0.475427 0.543965 1.136176
O -0.71704 1.34457 1.76846 0.414378 -1.323524 1.041494
O -3.01112 6.46285 18.66387 1.317276 -1.70386 1.057937
O 3.47452 3.61942 15.65747 -0.482765 0.837873 -1.330825
O 5.28642 1.30217 19.02817 0.242046 -1.452725 0.648083
O 3.5395 1.19573 15.41987 0.044976 -1.74988 0.904994
O 4.94804 3.97006 19.06257 1.155887 0.818421 -0.388099
O 5.803 2.53122 15.59577 2.333901 -0.382408 -0.158814
O 2.74046 2.0818 19.03547 -0.507381 1.521672 0.622111
O 5.54134 2.92504 8.47909 0.162584 0.219947 1.663123
O 2.7858 2.30585 5.44327 -2.007523 -1.197724 -1.379347
O 3.73975 1.01975 8.57004 0.252793 -0.225381 -0.358613
O 4.79597 3.79471 5.45086 -1.859858 -0.687804 -0.524309
O 3.20126 3.62442 8.44211 -0.978777 1.69359 0.011411
O 5.23473 1.35544 5.45311 0.279596 -1.89753 -0.226753
O -0.34449 6.21461 1.85429 -1.501295 1.88767 -0.873763
O 0.662 3.5886 5.10781 0.361406 -1.588905 0.116117
O -0.93083 3.75012 1.88233 -0.499184 0.138254 -0.806754
O 0.72573 6.25301 5.09362 -1.776961 -1.438017 0.63421
O 1.56357 4.53739 1.89261 0.475736 0.177634 -0.841783
O -1.58338 4.94257 5.10427 0.965708 1.625127 0.619221
O 1.56596 5.2379 15.60667 -0.684944 0.389691 0.461571
O -1.53344 4.67297 12.22447 2.131173 -0.405584 -1.962757
O -0.16453 3.16273 16.17627 -0.783106 -1.167068 -1.629591
O 0.34457 6.22741 12.10197 0.008281 0.784774 0.122212
O -0.99823 5.9407 15.57107 -0.129295 1.047407 -0.442663
O 1.1435 3.87582 11.94787 -1.929928 0.796201 0.679584
Al 4.25643 7.29195 2.91499 -0.542881 0.22141 0.349632
Al 4.28133 7.27295 17.58877 -0.572817 0.776113 -1.463168
Al 8.41575 0.0594 7.46423 0.120615 -0.207237 0.090973
Al 0.0473 0.02381 13.39387 -0.188239 -0.042159 -0.787325
Al 4.13654 2.53202 9.82419 -0.432346 -0.806745 1.075004
Al 4.26933 2.42341 4.21635 0.944617 -0.086509 -0.439796
Al 4.16866 2.40837 14.25727 0.032196 1.830881 0.420186
Al 4.32197 2.45699 20.29017 0.428656 -0.060734 0.174658
Al 0.0613 4.92145 16.93027 0.608427 0.955896 -0.858535
Al 0.0 4.86484 10.71457 0.113898 0.001065 1.359308
Al 0.05273 4.85694 0.49843 0.361349 0.017066 0.744642
Al -0.20504 4.90555 6.28897 1.318766 -1.346729 -1.107518
P -1.16476 2.035 15.64987 -2.13174 -0.118776 1.217104
P 5.39106 5.17521 5.24824 0.239468 0.617765 -0.591349
P 3.13278 5.16182 15.58437 0.681841 -1.572982 1.387663
P 1.14387 2.11636 5.32966 1.214977 -0.646539 -1.051104
P 2.52175 0.00342 15.31457 2.233977 -0.000284 4.447505
P 1.79647 7.32464 5.20917 -0.138701 3.133797 1.063665
P 3.16154 4.45395 1.79126 -1.689483 3.311661 -1.572687
P 5.24551 0.25228 12.12387 3.937457 0.575461 -1.18946
P 3.21376 0.32118 1.83497 -2.049113 -0.745634 0.529514
P 5.45008 4.6476 12.14847 -3.990845 -1.085619 0.990854
P 6.66965 2.39237 1.93974 1.712722 2.291224 -3.287804
P 1.73061 2.49386 11.95477 1.89851 -1.940769 1.020781
P -1.22389 6.9931 8.61624 -2.358495 0.013299 3.092205
P 1.34517 2.80534 19.03117 -1.950251 -1.652579 1.515525
P -1.38689 2.88359 8.46391 1.313943 -0.954146 0.871853
P 1.26979 7.01647 18.99627 -2.221743 2.500256 -1.90627
P 2.29339 5.00718 8.52182 2.552481 -0.981228 -2.152066
P -2.34611 5.04145 18.88137 -1.077399 0.224733 3.838141
120
Lattice="8.479696 0.000000 0.000000 -4.239848 7.343632 0.000000 0.000000 0.000000 20.731927 " Properties=species:S:1:pos:R:3:forces:R:3 energy=-858.8000242 pbc="T T T"
Li 0.41164 0.09123 20.26624 -0.13478 -0.103476 0.569293
Li 8.27138 0.21903 10.26574 -0.013066 -0.273624 0.05901
Li 4.30079 2.61228 6.6356 -0.129492 0.221489 0.652639
Li 4.44226 2.66918 17.13114 0.300054 -0.218812 0.991694
Li -0.84467 4.11286 13.64724 0.246213 0.304208 0.618945
Li 0.11276 4.81857 3.44288 -0.197648 -0.068467 -0.337082
Li -2.58747 5.26119 1.73567 0.467783 -0.196645 -0.284793
Li 7.07396 2.14124 19.01334 -0.309565 -0.452465 0.267169
Li 1.02981 2.12757 1.87393 -0.933364 1.552029 -0.016674
Li 2.76429 4.71993 18.43464 0.868587 -0.425571 0.559099
Li 5.15275 0.16008 8.30047 1.068251 0.263653 -0.460857
Li 2.39703 0.12554 12.12404 0.261244 -0.848982 0.109074
Li 5.3459 5.16822 8.86108 -0.89022 -0.361335 0.208724
Li -1.39815 2.43338 11.46434 -0.007166 -0.220123 0.052979
Li 2.80395 4.74322 5.01834 -0.130079 -0.522916 -0.283261
Li 3.40848 0.25586 4.82775 0.059613 -0.562197 0.225354
Li 1.51777 2.84252 15.37014 0.276763 0.393686 -0.224114
Li 1.55397 7.3073 15.24324 -0.798212 -0.0711 -0.124371
O -0.77321 1.53384 14.23814 1.000979 -1.187055 -0.920122
O 4.83329 5.94996 6.40789 0.394109 1.64825 0.316654
O 3.53132 5.99907 14.49624 1.001712 1.719102 -1.21967
O 0.72136 1.40809 6.55349 0.087177 -0.993952 0.60192
O -2.47135 7.30529 14.00354 -0.761151 0.472425 0.757105
O 6.69463 0.25766 6.5774 0.473391 -1.225436 -0.392073
O 1.28278 0.1365 16.44484 -0.200424 0.094686 0.824833
O 2.83424 6.9351 4.02336 1.005391 -0.811473 0.271997
O 3.4356 5.65582 17.04804 0.435851 0.848682 -1.010152
O 0.65012 1.43602 3.9848 0.321248 -1.440468 -0.561909
O 7.33597 0.9483 16.71994 0.128623 -0.265489 -0.413306
O -3.19114 5.97381 3.86809 -0.599441 1.488266 -1.698437
O 3.61537 3.75855 0.48187 -0.045621 -0.994381 0.278239
O 5.16821 1.00885 13.57344 -0.465137 0.033825 -0.750917
O 4.06284 1.05985 0.69774 -1.019926 0.245663 -1.06377
O 4.95602 3.72583 13.34674 -0.811175 -0.6352 1.0398
O 6.22104 2.15686 0.13313 -0.535924 1.802955 1.070819
O 2.52789 2.54797 13.43394 -0.425956 -0.662207 -0.461265
O 5.56946 2.74684 2.64359 -0.226706 0.90244 -0.380908
O 2.57347 2.33307 10.91394 2.738105 -0.67384 -3.320681
O 3.6145 0.96003 3.09308 -0.18322 0.721976 0.861684
O 4.6039 4.04518 10.80244 0.185883 0.521205 0.161187
O 3.25632 3.87459 3.16067 0.148588 -0.0608 -1.638969
O 5.28963 1.42932 10.99704 -1.130434 -0.005444 0.388225
O -0.69203 6.50788 7.2392 -1.148625 -0.002538 2.102208
O 0.78393 3.23737 20.49264 0.541321 0.432232 -0.031034
O -0.89546 3.67412 7.46157 0.166141 0.341857 0.125039
O 0.68815 6.30761 20.09124 -0.401795 -1.969239 1.496868
O 1.58163 4.82359 7.26503 -0.996486 0.872742 0.083885
O -1.74848 4.88819 20.48554 0.825872 -0.135887 -0.650102
O 1.48209 5.07444 9.94204 -0.2432 0.288261 -0.683232
O -1.38993 4.65383 17.98234 2.013491 -0.48911 -2.018885
O -0.57987 3.38487 9.97504 0.411984 1.295676 1.847859
O 0.75119 6.36105 17.55654 0.715154 0.606812 0.434108
O -0.99029 6.05036 9.77288 0.800723 -2.63774 2.073326
O 1.20536 3.79664 18.09954 -0.562304 1.218032 -1.334226
O -0.69797 1.39138 8.7043 -0.676104 -0.02248 -0.230041
O -3.40155 6.05406 12.17064 -0.843202 -0.904095 -0.436981
O 3.39688 6.01814 8.65689 -1.670398 0.528189 -0.184164
O 0.69252 1.24486 12.02114 0.788007 1.570949 -0.189259
O -2.87009 7.18828 8.87405 -0.209773 -0.950247 -1.951646
O 2.60018 7.21985 11.98164 -0.022815 0.537137 1.321029
O 1.61493 0.48305 1.62883 0.158282 0.022863 -0.517702
O 2.81891 7.30365 19.02694 -0.726099 -2.758066 -0.156528
O 3.99607 5.83283 1.66477 0.680201 1.260085 0.444781
O 0.51751 1.49178 18.81734 -1.568734 -1.932057 -0.515591
O 7.39888 1.18818 1.97787 2.323158 -2.455104 0.859919
O -2.9681 6.3513 18.97624 -1.453247 2.089229 -1.155008
O 3.54451 3.64136 15.71454 -0.187618 0.660506 -0.264201
O 5.08279 1.16702 18.77484 -0.943483 -0.442862 0.567839
O 3.60572 0.91735 15.53264 -2.035458 -0.325441 0.492373
O 4.84092 3.97301 18.89794 1.949454 -0.401503 0.549112
O 5.86262 2.54634 15.66844 -0.93451 -0.732222 -0.69926
O 2.84569 2.33198 19.03784 0.415569 -0.134192 1.486434
O 5.63074 2.77985 8.76028 2.075667 0.664532 -0.642713
O 2.77885 2.26748 5.22895 -0.79073 -1.424692 0.706085
O 3.59227 0.98694 8.8514 0.543622 0.296579 -0.163849
O 4.65449 3.94806 5.30865 0.127285 -1.05425 -1.268554
O 3.16785 3.68535 8.55864 0.68138 -2.601512 0.867891
O 5.47574 1.38173 4.88515 -0.810239 0.832569 0.158749
O -0.87203 6.18007 1.8041 1.479069 0.698763 -0.703763
O 0.65222 3.54847 5.10682 0.76605 -0.622112 0.324771
O -0.68517 3.64526 1.76861 -1.583448 -1.114264 0.038018
O 0.64073 6.32831 5.09082 2.658118 0.141355 0.29292
O 1.62076 4.94678 1.73541 0.410237 -0.297427 -1.021695
O -1.50957 4.95709 5.15932 0.646984 0.236172 0.73097
O 1.50812 4.95079 15.39654 0.394223 1.063593 1.278047
O -1.64498 4.37468 12.00584 0.529853 -0.28092 -0.292512
O -0.32124 3.27056 15.94724 0.865059 -0.251547 -0.45578
O 0.1208 6.49495 12.10764 0.024471 0.453689 -0.823351
O -1.18274 5.82242 15.44444 0.587524 -0.745782 1.382331
O 0.94474 3.80591 12.10094 -2.16729 1.928429 0.100885
Al -4.16314 7.24939 2.95004 -0.865758 0.887834 -0.558829
Al 4.22149 7.25822 17.72054 0.618195 -0.211403 0.648474
Al 8.29779 0.02058 7.47235 0.69165 0.145926 0.74962
Al -4.22333 7.31946 13.22534 -0.792218 -0.157696 0.290521
Al 4.09486 2.65422 9.77579 -0.607672 -1.827615 0.707407
Al 4.3316 2.53821 4.01252 -0.242188 0.352511 -1.876044
Al 4.23829 2.43705 14.57744 0.694661 -0.981909 -2.438348
Al 4.42886 2.30696 20.18574 -0.077168 1.097148 -1.34282
Al -0.04082 5.02336 16.76394 -0.343939 -2.342396 -0.65984
Al 0.02457 4.96122 10.95654 -1.445053 -0.242282 0.196849
Al 0.15993 5.01262 0.53155 -1.495409 -1.603279 0.849221
Al 0.08096 4.81853 6.2301 -2.114322 0.969963 1.246384
P -1.15344 2.00618 15.62404 -1.738702 2.577366 1.149016
P -2.99852 5.28288 5.18072 0.385037 -1.780861 1.968015
P 3.07587 5.1567 15.62254 -2.04006 -2.598764 1.257631
P 1.1665 2.03839 5.28859 1.291959 3.35881 -2.133362
P -1.89321 7.19219 15.43194 3.329643 1.315494 -2.106168
P 6.18375 0.0436 5.13364 -4.363496 0.098425 0.662457
P 3.15511 4.53737 1.69157 -1.781059 0.336907 2.213164
P 5.32622 0.38729 12.15604 2.718349 -0.548749 0.114081
P 3.20841 0.41299 1.72544 -1.004301 -2.755373 1.967391
P 5.25741 4.49871 12.10564 1.44418 2.005841 -0.547222
P 6.66557 2.44678 1.63559 1.963863 1.381175 -1.075031
P 1.72791 2.53816 12.06354 -1.115269 -1.41692 4.925319
P -1.34724 6.93538 8.65124 0.156906 3.781507 -2.366436
P 1.35515 2.7007 19.14764 0.813933 1.40303 0.124761
P -1.19993 2.88281 8.72231 -2.058713 -2.616037 -2.587261
P 1.21525 6.96709 18.88674 2.249015 5.50215 -1.572761
P 2.2226 4.86336 8.6559 4.216529 1.775771 -1.285103
P -2.3493 4.96739 19.05384 -3.612796 -1.214617 2.780436
120
Lattice="8.458650 0.000000 0.000000 -4.229325 7.325405 0.000000 0.000000 0.000000 20.680471 " Properties=species:S:1:pos:R:3:forces:R:3 energy=-857.37505568 pbc="T T T"
Li -0.2361 1.22544 20.59942 0.115621 -0.210191 0.958108
Li 0.883 1.09001 9.71885 -0.010266 0.664551 1.019256
Li 4.71255 2.56388 6.55222 -0.169515 -0.120129 0.003685
Li 2.74059 0.39231 18.26332 0.044721 -0.143177 1.027925
Li 2.75084 4.80292 12.91642 0.243647 0.001307 -0.398591
Li 1.61518 6.87583 1.06317 -0.189936 0.425855 0.024834
Li -2.69673 5.23518 2.05093 -0.044171 -0.079016 0.02498
Li 5.81412 2.79101 17.48432 -0.270839 -0.698793 0.507289
Li 6.8788 2.35034 4.35202 0.707158 1.013503 -0.090748
Li -2.79132 4.93892 15.46182 -0.34481 -0.772609 0.067504
Li 1.97527 7.13098 8.69677 -0.103492 0.295744 0.154206
Li -1.45039 7.31509 11.52832 -0.409837 -0.182885 0.389438
Li -2.53575 4.55802 9.1569 -0.641505 1.56117 -0.022608
Li -1.05863 2.48267 11.64462 -0.031363 0.122089 -0.022385
Li 2.43385 4.73234 4.28752 -0.467697 0.419119 1.035843
Li -0.68572 7.15173 4.18937 -0.300494 -1.008577 0.799354
Li 2.74943 2.96721 17.29362 0.391427 0.485682 -1.315286
Li 0.8608 7.2704 16.08252 0.583886 0.733719 -0.214596
O 7.56493 1.32171 14.35842 -0.596803 -0.600782 -1.081901
O -3.16684 5.56067 6.35502 -0.660769 1.809567 1.645626
O 3.36071 5.96205 14.18842 1.55694 0.816324 -3.447987
O 0.97173 1.07867 6.39313 -0.181182 1.108743 -1.416025
O 1.58271 0.29381 14.37152 0.350556 -0.56961 0.719564
O 2.74184 7.18315 6.62624 -0.911852 -0.075991 -0.480339
O 1.55942 0.61082 16.86222 -0.701596 -0.299922 0.42507
O 2.79981 6.66224 4.08167 -1.114613 0.402503 2.079651
O 3.58698 6.14971 16.51142 1.071496 0.504036 1.66126
O 0.17617 1.50282 4.05743 2.026112 0.71799 1.256297
O 7.17237 1.44458 16.80152 0.831726 -0.48225 0.431923
O -3.10511 5.88613 3.80902 -0.425686 0.476126 0.585707
O 3.10995 3.70984 0.41015 0.697884 0.733025 1.002088
O 4.89822 1.10952 13.35832 0.685746 0.90208 1.228095
O 3.09264 1.01402 0.2594 1.422544 0.682507 -1.073888
O 4.76205 3.88963 13.03762 0.232013 0.505256 0.917047
O 5.5233 2.23971 0.48853 0.204533 0.479291 0.422199
O 2.48239 2.75762 13.60512 1.080617 -0.130612 1.505556
O 5.47891 2.93763 2.9114 0.10857 -0.191541 0.212913
O 2.56358 1.8174 11.38272 3.804234 -0.776064 -4.200456
O 3.71844 0.8218 2.71378 0.564648 0.790432 0.094537
O 4.91609 4.26468 10.69192 0.415002 -0.339778 -0.913635
O 2.93113 3.74167 2.959 0.287199 -0.543304 -1.407471
O 5.63079 1.58683 11.03442 0.641118 -0.044993 0.289657
O -0.50963 6.25644 7.40583 -0.465275 -1.112013 0.511468
O 0.64491 3.33973 20.39312 0.743989 0.135849 -0.339935
O -0.56829 3.1135 7.2887 -0.30523 1.41585 -1.989442
O 0.49298 6.33787 20.18392 1.22786 0.735736 -0.246013
O 1.91828 4.55717 7.41374 -1.961794 -0.175004 -0.736118
O -1.57953 4.80637 20.10722 0.537438 -0.623504 1.058608
O 1.63913 5.27377 9.77439 -1.804856 1.673889 1.994651
O -1.6585 4.36326 17.59382 0.197984 1.785814 1.338338
O -0.20106 3.42148 9.70314 -1.870892 -0.807072 0.071063
O 0.22123 6.70788 17.73552 -0.025076 -2.068423 -0.48065
O -1.18844 5.91199 9.85852 -0.309625 -0.01452 -0.436851
O 1.02698 3.6148 17.79242 -0.235337 1.393128 0.231004
O 7.70503 1.07661 8.87295 -0.405905 2.040438 -1.063927
O -3.00712 6.27339 12.19322 -0.745441 -0.699652 -0.037108
O 3.78548 5.59325 8.5593 1.480861 2.267023 -0.356159
O 0.47382 1.61419 12.23102 0.039386 1.088397 0.579461
O 1.6575 0.15006 8.46544 1.164894 -1.983564 -0.036372
O 2.79527 7.20244 12.25002 -2.518163 0.918365 -1.061464
O 1.33058 0.52032 1.80667 -0.232921 -0.674851 0.970104
O 2.61057 6.75765 18.85622 -0.712168 1.408577 0.215198
O 3.93065 5.75062 1.64271 -0.992007 0.37884 0.615959
O 0.34556 1.54815 18.93472 -1.933646 -3.096781 -0.308154
O 6.89076 0.95113 2.01156 0.7192 0.44455 0.137126
O -3.16787 6.31754 18.95722 1.653145 0.162917 -1.472726
O 3.46885 3.83551 15.60762 -1.001268 1.837753 -0.048657
O 5.07368 1.3164 18.87552 -0.200856 0.680465 1.117648
O 3.67445 1.1624 15.73772 -1.558313 -0.988579 -0.726961
O 4.78929 3.99155 18.85182 -0.291707 -2.350478 1.026944
O 5.66596 2.77969 15.58182 2.134459 -0.159732 -2.036341
O 2.66342 2.32527 18.97112 0.006776 0.304529 0.290324
O 5.86127 2.7551 8.71198 -0.525615 0.854618 -0.542322
O 2.82165 1.64381 4.9617 -0.403367 -0.115295 -1.061047
O 4.00248 0.79475 9.03667 1.195873 0.651703 0.468899
O 4.3912 3.75524 5.02067 -0.073038 -0.466681 -0.063371
O 3.18927 3.28312 9.18664 -1.616907 1.21402 -0.903088
O 5.62421 1.321 5.04974 -0.968365 -2.147305 0.952104
O -1.09864 6.11743 1.59518 0.550621 -2.309096 -0.180224
O 1.16358 3.42369 5.23993 -1.00891 3.240491 0.662877
O -0.98078 3.33855 1.54878 1.767319 2.159856 0.431491
O 0.78065 6.14344 5.33251 -2.117082 -1.829144 -0.028033
O 1.32174 5.16606 1.65036 3.028415 -1.226975 -0.07867
O -1.52993 4.33917 4.87992 0.02391 0.032201 1.572357
O 1.31916 5.54629 15.51542 1.843561 -1.124527 0.441242
O -1.398 4.31888 12.10482 0.552725 0.51283 -1.249855
O -0.26611 3.41721 15.45442 -0.037706 1.552322 0.493518
O 0.23718 6.71892 11.82702 2.284942 -0.411648 -0.871173
O -1.31873 6.02843 15.77982 0.113659 0.648189 -0.555576
O 1.23885 4.09666 12.10432 -0.037311 -1.398786 -1.43618
Al 8.41065 0.03214 3.05918 0.144186 -0.923818 -1.337752
Al 8.25023 0.17176 17.79692 0.212156 -1.002356 -0.639298
Al -4.02175 7.02058 7.24024 0.862572 -0.871044 1.390778
Al 0.00234 0.16569 13.32442 1.300963 -0.392981 0.157481
Al 4.51429 2.56466 10.03602 -0.993344 -1.175502 -0.016915
Al 3.89984 2.34551 3.66304 0.865714 1.666684 0.175771
Al 4.20224 2.43919 14.45522 -0.440593 0.89664 -0.793747
Al 4.15132 2.60997 20.06942 -0.361926 -0.744087 -0.566814
Al -0.0719 4.93043 16.63152 0.25104 -1.376381 0.844828
Al 0.08272 5.02248 10.87332 0.941032 -0.425277 0.805915
Al -0.19447 4.67774 0.54395 0.812786 1.782883 0.42869
Al 0.09554 4.58403 6.40257 1.293485 0.806972 0.2228
P -1.21266 2.25125 15.45492 -2.051029 -0.004104 2.751484
P 5.45001 4.89452 5.02183 1.869716 0.048249 -1.4619
P 2.93068 5.32832 15.42842 -2.049269 -1.243593 4.166874
P 1.29265 1.95948 5.16354 -1.495342 -4.385305 0.375814
P 2.40528 0.16679 15.66882 -0.24229 1.478163 -1.794532
P 1.86667 7.15369 5.35005 3.810183 2.14436 -2.425389
P 2.90023 4.60186 1.63454 -3.006099 -0.799744 -0.822858
P 5.59062 0.50005 12.15222 -1.88139 -2.253865 0.099078
P 2.87323 0.26688 1.51305 -3.022867 1.669936 0.38778
P 5.56384 4.72531 12.00792 -0.280367 -0.177883 2.166992
P 6.35518 2.42031 1.76456 -1.444449 -3.112884 -1.607218
P 1.74969 2.5966 12.30612 -3.867488 0.674288 1.807088
P -1.09833 6.9407 8.66884 -0.692181 0.069825 -1.238576
P 1.17499 2.77471 19.09302 0.278248 2.019503 -1.841225
P -1.06008 2.64721 8.61429 2.57936 -3.296296 2.769413
P 1.08644 7.11953 18.98822 0.282022 -1.184743 -0.619656
P 2.58268 4.69329 8.78599 1.75868 -3.115533 -2.492501
P -2.43237 4.91866 18.90682 -2.832728 1.092779 -2.130071
120
Lattice="8.433435 0.000000 0.000000 -4.216717 7.303569 0.000000 0.000000 0.000000 20.618823 " Properties=species:S:1:pos:R:3:forces:R:3 energy=-859.90740116 pbc="T T T"
Li 0.08507 0.88477 20.60819 0.240884 -0.275623 0.485219
Li 1.66335 2.22263 9.14346 -1.040639 0.020575 -0.808303
Li 4.01467 1.87499 6.80233 -0.241522 0.175917 -0.029581
Li 2.52221 0.43166 18.25439 0.535612 -0.619476 0.052219
Li 2.65739 5.24788 11.38149 0.468425 -1.158368 0.087447
Li 1.1134 6.56229 2.10002 0.112839 1.168194 -0.041654
Li 5.70819 4.67344 2.23062 -0.039632 0.82917 -0.52613
Li 6.96906 2.13815 18.25889 -2.760317 1.074243 -0.638411
Li -1.16884 2.90891 4.58058 -0.191517 0.171413 -0.102539
Li 5.67797 4.50362 15.87219 -0.346341 -0.124015 0.347636
Li 5.94557 0.29284 9.21551 0.080857 -0.162637 0.133056
Li -1.31237 6.74618 13.12509 0.036819 -0.141051 -0.439074
Li -3.22646 6.11389 10.06059 -0.002803 -0.03749 -0.235255
Li -0.97577 2.29567 11.31939 -0.231272 -0.327659 0.404885
Li 2.75883 4.56095 4.46285 -0.604557 0.606011 0.794354
Li -0.86731 5.92032 3.87505 0.458984 1.038679 -0.91268
Li 2.85831 4.6122 18.14569 1.062381 0.031599 -0.04396
Li 1.29072 7.24114 16.02469 -0.655169 0.581749 -0.21188
O 7.37938 1.60368 13.94019 1.161443 -1.112419 0.057305
O -3.2988 6.08941 6.46414 0.04658 0.445413 -0.043954
O 3.49818 5.72533 14.06469 -0.974841 1.035131 -1.284112
O 1.05526 1.55938 6.64957 -1.01535 -0.527348 0.935545
O 1.42454 0.2179 14.29189 0.813485 -0.444903 0.249442
O 2.69696 7.28636 6.33434 -0.085517 0.822728 0.866315
O 1.50861 0.47762 16.72799 -1.01804 0.388476 1.035662
O 2.68517 6.67273 4.06131 0.984351 -0.14604 -2.579345
O 4.02674 5.70788 16.37419 -0.461378 0.517722 1.670068
O 0.25124 1.55922 4.23711 0.294384 -0.349378 0.253632
O 7.0764 0.93475 16.40149 1.587245 0.491977 0.396977
O -3.11069 6.16651 3.92242 0.983668 -0.797166 1.092285
O 3.31176 3.75737 0.47069 -1.639557 0.376527 2.453795
O 4.96038 0.74031 13.42409 -0.233715 -0.176231 -1.058167
O 3.35816 1.11586 0.43138 -0.319459 -0.886876 1.035213
O 4.97742 3.78804 13.33519 -0.263132 -1.493935 0.717346
O 5.77788 2.49762 0.40371 0.251225 -1.085961 -0.878179
O 2.7124 2.38701 13.36089 -1.181091 -0.770854 -2.24025
O 5.51513 2.86217 2.72151 0.803017 -0.241969 1.651033
O 2.52186 2.13043 10.65839 1.071019 0.213721 2.956396
O 3.94885 0.82381 2.83616 -0.872043 0.195764 0.757359
O 4.63734 4.12624 10.83079 -1.134125 0.005039 -0.034207
O 2.95713 3.46749 3.04253 0.185717 -0.767759 0.505021
O 5.52536 1.41681 11.06619 -1.284634 0.873891 -1.933276
O -0.75049 6.35805 7.31767 0.311245 -0.26919 -0.881285
O 0.62389 3.44905 20.02749 -1.245632 1.272718 3.261612
O -0.69813 3.49943 7.23766 -0.119102 0.094495 0.308478
O 0.89697 6.33537 20.32079 -0.661717 -0.835502 -0.475535
O 1.63853 4.91057 7.33043 -0.666245 0.485137 -1.733311
O -1.71333 4.85502 20.14909 0.874034 0.522987 0.489553
O 1.75002 4.96467 9.71943 -1.38322 0.84308 2.523994
O -1.72031 4.41357 17.69749 0.589528 -0.825555 -0.75714
O -0.12528 3.17518 9.79129 -1.698754 -1.254557 -2.5405
O 0.13147 6.22051 17.81999 1.291472 3.011098 2.110769
O -1.07359 5.78122 9.70315 -0.472986 1.927623 -1.206885
O 1.2494 3.831 17.68309 -0.590367 -1.741613 1.717134
O 7.37361 1.22831 8.44871 0.274688 1.51185 0.228338
O -3.10935 6.06387 12.32079 0.652437 -1.865254 -1.748436
O 3.58551 5.99774 8.57644 1.014456 1.818297 -0.211639
O 0.61424 1.33579 12.09499 2.136709 2.291874 -0.439307
O 1.60289 0.32125 8.69557 0.746508 -2.022794 0.159021
O 2.6203 6.90032 11.90289 1.326103 1.496795 1.426042
O 1.39201 0.57157 1.84921 -0.746029 0.316836 0.930919
O 2.56395 6.55269 18.39919 -0.740115 0.83177 0.956671
O 3.92728 5.55275 1.91461 -1.043287 0.680044 1.139479
O 0.06022 1.57511 18.55969 2.025017 -0.132687 1.464648
O 7.04075 0.89192 1.89198 1.563302 -1.074219 0.631767
O -3.17288 6.30441 18.77759 0.095965 1.033098 -0.266637
O 3.2583 3.5216 15.58709 -0.012302 2.458382 -1.765977
O 5.20731 1.17651 19.02859 -0.299708 -0.346758 -1.116576
O 3.6658 0.87019 15.46139 -1.804075 -0.813943 -0.100476
O 4.62271 3.9192 19.03049 1.623644 0.931958 -1.033379
O 5.67998 2.57273 15.46829 -0.935367 1.129437 -0.452602
O 2.54203 2.1001 18.94759 -0.952728 0.981031 0.349279
O 5.85261 3.16725 8.81379 -2.890257 -0.627173 0.926568
O 2.75911 1.87469 4.9841 -0.398219 0.662896 0.72947
O 3.95531 0.94581 8.75337 1.403727 0.068243 0.515247
O 4.45992 4.11565 5.18705 -0.326211 -2.063239 -0.760489
O 3.32678 3.54143 8.44184 0.592759 -2.723709 0.547968
O 5.42981 1.41647 4.84785 1.132998 0.990531 0.820503
O -0.97668 6.13462 1.78824 0.115418 0.983164 -0.483451
O 0.86131 3.69522 5.16854 0.776866 -0.132732 0.20966
O -0.83639 3.48451 1.66459 0.565539 -0.756921 0.357624
O 0.54989 6.45183 5.18051 0.35454 -1.158859 0.405717
O 1.39098 4.86229 1.77781 -0.053366 -0.21093 -0.221204
O -1.47624 4.83592 5.09689 -0.903678 -0.948107 1.088625
O 1.5121 5.3955 15.64279 0.448844 0.66495 -0.402308
O -1.45469 4.08736 11.81319 -0.819835 1.158333 0.309945
O -0.31306 3.29191 15.77729 -1.444468 -1.468593 -1.059817
O 0.28821 6.35645 11.63469 -0.367491 0.462715 0.59075
O -1.45527 5.8974 15.71789 1.351373 -2.401695 -0.875219
O 1.3522 3.88598 11.98609 -0.989303 0.166246 0.130481
Al -0.01623 0.03812 3.16593 0.082992 -0.337279 -1.50481
Al 4.08132 7.24972 17.61899 0.845234 -0.914695 -2.516301
Al -0.03982 0.14168 7.39498 1.520721 -1.192151 -0.127733
Al 4.15405 7.30328 13.20969 -0.276878 -0.066581 0.555572
Al 4.16366 2.465 9.86129 1.385592 1.537813 0.304181
Al 4.14061 2.30187 3.87132 0.640504 0.568121 -0.907093
Al 4.16807 2.34018 14.32859 1.030213 0.18852 1.98878
Al 4.1752 2.52691 20.13459 -0.062874 -0.59168 -0.043577
Al 0.08366 4.83335 16.62619 -1.114684 -0.619983 0.665783
Al 0.14771 4.69501 10.78829 -1.128105 0.573298 -0.55843
Al -0.1355 4.85397 0.41971 0.118953 -0.26224 1.094631
Al 0.08758 5.00998 6.3809 -0.284144 -0.35481 -0.066
P 7.13784 2.15258 15.34229 0.770959 -0.721258 0.763323
P -2.99463 5.26642 5.2302 0.328686 2.174417 0.056412
P 3.02236 5.09238 15.34489 0.805677 -2.647899 1.560084
P 1.25659 2.19509 5.30493 -0.236147 -0.58429 -1.945583
P 2.31401 0.01298 15.53249 0.974831 3.111784 -0.042503
P 6.04477 0.02945 5.11137 -2.02759 -0.720899 1.285005
P 2.85794 4.40419 1.84496 2.063847 0.323309 -4.857249
P 5.42057 0.2284 12.05299 0.329314 -0.358488 0.838793
P 2.92535 0.45706 1.74518 0.61169 -2.589722 -2.579222
P 5.45913 4.46657 12.10439 1.897253 1.007337 -0.134965
P 6.57822 2.31455 1.67618 -2.197847 3.99168 -0.743085
P 1.82681 2.43277 12.13169 -1.023277 -1.854306 -1.823451
P -1.15859 6.94792 8.62832 -1.970332 -0.564658 1.342968
P 1.13305 2.74995 18.85999 2.009622 -0.164371 -4.649226
P -1.19285 2.80779 8.49981 3.738404 0.182285 1.409197
P 1.11328 6.95969 18.92449 -0.147554 -2.14863 -0.928704
P 2.59043 4.86325 8.47665 -0.090635 0.039653 -0.34392
P -2.53072 4.89843 18.87779 -2.879423 -1.542612 1.211782
120
Lattice="8.622734 0.000000 0.000000 -4.311367 7.467507 0.000000 0.000000 0.000000 21.081640 " Properties=species:S:1:pos:R:3:forces:R:3 energy=-831.51776473 pbc="T T T"
Li 0.0 0.0 0.0 -7e-06 -5e-06 -5.7e-05
Li 0.0 0.0 10.5408 1.4e-05 -6e-06 -2.3e-05
Li 4.31137 2.48917 7.02721 -1e-05 -9e-06 0.000178
Li 4.31137 2.48917 17.568 -2e-06 -1.1e-05 0.000331
Li 0.0 4.97834 14.0544 2e-06 1e-06 -0.000256
Li 0.0 4.97834 3.51361 4e-06 -1.4e-05 -0.000365
Li -2.15568 6.22292 1.7568 -5.28619 -8.836147 0.053438
Li 6.46705 1.24458 19.3248 5.286184 8.836219 -0.053573
Li 0.0 2.48917 1.7568 10.295349 0.159853 -0.052382
Li 4.31137 4.97834 19.3248 -10.29556 -0.159702 0.052261
Li 6.46705 1.24458 8.78402 -5.286128 -8.836194 0.052276
Li -2.15568 6.22292 12.2976 5.286052 8.836153 -0.052398
Li 4.31137 4.97834 8.78402 10.295372 0.159779 -0.053553
Li 0.0 2.48917 12.2976 -10.295406 -0.15971 0.05343
Li 2.15568 3.73375 5.27041 5.284728 8.833624 -0.052966
Li 4.31137 0.0 5.27041 -10.292557 -0.159763 0.052848
Li 2.15568 3.73375 15.8112 -5.284538 -8.833637 0.052854
Li 4.31137 0.0 15.8112 10.292449 0.159903 -0.052975
O -0.78874 1.40594 14.552 0.49084 0.025069 -0.80705
O 5.10011 6.06157 6.52962 -0.490883 -0.025101 0.806848
O 3.48816 6.08147 14.552 -0.311341 -0.486086 0.424653
O 0.82321 1.38604 6.52962 0.311218 0.485844 -0.424646
O -2.69942 7.44761 14.552 0.502664 -0.213548 -0.665543
O 7.01079 0.0199 6.52962 -0.502554 0.213509 0.665431
O 1.61195 0.0199 17.0704 0.575844 0.02643 -0.424592
O 2.69942 7.44761 4.0112 -0.576535 -0.026585 0.424915
O 3.52263 6.06157 17.0704 -0.066199 -0.54141 0.665518
O 0.78874 1.40594 4.0112 0.066384 0.541926 -0.665316
O 7.79953 1.38604 17.0704 -0.266721 -0.413131 0.807045
O -3.48816 6.08147 4.0112 0.267203 0.412438 -0.806583
O 3.52263 3.89511 0.4976 0.491628 0.024969 -0.814189
O 5.10011 1.08323 13.5568 -0.49173 -0.023248 0.809343
O 3.48816 1.10313 0.4976 -0.311517 -0.485308 0.417549
O 5.13458 3.87521 13.5568 0.31006 0.484137 -0.422181
O 5.92331 2.46927 0.4976 0.50217 -0.214145 -0.672614
O 2.69942 2.50907 13.5568 -0.500491 0.213326 0.667968
O 5.92331 2.50907 3.01601 0.574909 0.026487 -0.422644
O 2.69942 2.46927 11.0384 -0.576197 -0.027133 0.417504
O 3.52263 1.08323 3.01601 -0.065682 -0.540478 0.667641
O 5.10011 3.89511 11.0384 0.065913 0.541953 -0.673011
O 3.48816 3.87521 3.01601 -0.266218 -0.413992 0.809128
O 5.13458 1.10313 11.0384 0.267586 0.413137 -0.814233
O -0.78874 6.38428 7.52481 0.49152 0.023647 -0.808919
O 0.78874 3.5724 20.584 -0.491728 -0.024793 0.81444
O -0.82321 3.5923 7.52481 -0.310422 -0.484691 0.422789
O 0.82321 6.36437 20.584 0.311347 0.485127 -0.417278
O 1.61195 4.95844 7.52481 0.500946 -0.213357 -0.667531
O -1.61195 4.99824 20.584 -0.501721 0.214086 0.673059
O 1.61195 4.99824 10.0432 0.57552 0.027123 -0.416676
O -1.61195 4.95844 18.0656 -0.57495 -0.026508 0.42249
O -0.78874 3.5724 10.0432 -0.065357 -0.541528 0.673527
O 0.78874 6.38428 18.0656 0.065709 0.540522 -0.667811