16
Lattice="5.748379 0.000000 0.000000 -2.936604 4.623146 0.000000 0.305880 -0.004599 9.783343 " Properties=species:S:1:pos:R:3:forces:R:3 energy=-85.80446463 pbc="T T T"
Si -0.76323 2.6969 1.49449 0.052811 -0.576143 -0.511291
Si 0.88937 1.68517 6.54516 -0.262639 -0.238967 -0.585003
Si 0.52924 0.43132 1.21803 0.401007 0.197266 -0.503763
Si -0.73156 4.38705 5.78688 -0.439351 0.109786 -0.058306
Si 2.76326 1.81055 1.23642 -0.38692 -0.523273 -0.687785
Si 3.44789 2.5449 6.08718 0.203197 -0.42917 -0.138322
Si 1.0986 4.17355 0.75328 0.062721 0.334533 0.603079
Si 1.6087 4.09117 6.2663 -0.42192 0.530737 -0.534903
Si -1.76773 4.18819 3.38259 -0.150308 0.138205 0.750889
Si -1.56211 3.93284 8.52581 0.251533 0.331986 0.041756
Si 0.66978 3.5499 3.19821 0.366212 0.141163 0.678296
Si 0.47013 2.64002 8.77472 -0.218599 0.01706 0.439392
Si 5.0117 1.13233 4.33279 0.061899 -0.256868 0.272274
Si 4.99169 0.49606 8.37826 -0.416037 0.211044 -0.295065
Si 2.58438 1.94731 3.63204 0.338848 0.241624 0.368213
Si 2.77689 1.79594 8.42561 0.557546 -0.228983 0.160539
16
Lattice="5.773419 0.000000 0.000000 -2.949396 4.643285 0.000000 0.307213 -0.004619 9.825959 " Properties=species:S:1:pos:R:3:forces:R:3 energy=-86.39426409 pbc="T T T"
Si -0.07199 2.11698 1.23977 -0.733179 0.289073 -0.338388
Si -0.13276 2.1147 6.2283 1.48035 -0.388384 -0.339485
Si 1.0741 0.02311 1.26258 0.033662 -0.384445 -0.125939
Si -1.70726 3.79924 6.19851 -0.47178 1.115236 0.17977
Si 3.06187 1.50756 1.37114 0.380746 0.494381 -0.715142
Si 2.45518 1.98643 6.20614 -0.484483 -0.551819 -0.09768
Si 1.50627 4.21568 1.27233 0.163232 0.146271 -0.08039
Si 0.78998 4.48065 5.6108 -0.188954 -0.265556 1.154519
Si -1.52748 4.42937 3.73802 -0.434877 -0.052574 0.01017
Si -1.28102 4.36747 8.66356 -0.227303 -0.29486 -0.184162
Si 0.66521 3.25996 3.27446 -0.17718 -0.151812 0.449783
Si 1.05602 3.31994 8.95477 -0.461429 -0.305481 0.252358
Si 5.01708 1.07769 4.12666 1.22469 0.42382 -0.722176
Si 5.07813 0.56122 7.92402 -0.003684 0.145015 -0.001801
Si 2.91598 2.26308 3.65443 -0.21489 0.109296 0.226198
Si 3.21358 2.16093 8.65224 0.11508 -0.328161 0.332365
16
Lattice="5.706306 0.000000 0.000000 -2.915110 4.589309 0.000000 0.303642 -0.004566 9.711737 " Properties=species:S:1:pos:R:3:forces:R:3 energy=-86.51484974 pbc="T T T"
Si -0.55625 1.87351 1.07067 -0.007264 -0.125203 0.027417
Si -0.41236 0.96482 5.87704 0.202268 0.10033 0.588451
Si 1.6681 0.79372 1.32753 -0.466642 -1.219089 -0.072487
Si 2.03613 0.33587 5.89953 -0.330321 -0.265619 -0.258167
Si 2.77303 2.77889 1.48172 1.512718 0.956019 -0.734866
Si 3.40743 2.4203 6.31083 -0.093364 0.318456 -0.062477
Si 0.82465 4.09616 1.32305 -0.180561 0.215814 -0.134431
Si 1.15875 3.3485 5.96031 -0.418522 0.280094 0.16746
Si -1.84782 4.00244 3.51876 -0.000264 0.264399 -0.168592
Si 2.3027 0.5183 8.33036 -0.625908 0.576982 0.415139
Si 0.45428 3.13892 3.53736 0.182049 0.236495 0.418715
Si 0.18648 2.03414 8.33845 0.233741 -0.266588 -0.34282
Si 4.99003 1.06221 3.46399 -0.669453 -0.508879 -0.049549
Si 1.60319 4.28535 8.64221 -0.264023 0.323571 -0.382907
Si 2.55367 1.85346 3.72691 0.327556 -0.569526 0.574871
Si 3.62888 3.10353 8.65791 0.59799 -0.317256 0.014241
16
Lattice="5.688134 0.000000 0.000000 -2.905827 4.574694 0.000000 0.302675 -0.004551 9.680809 " Properties=species:S:1:pos:R:3:forces:R:3 energy=-87.03606884 pbc="T T T"
Si -0.40508 1.14327 1.245 -0.366393 0.321572 0.006922
Si -0.49094 1.14441 6.14867 -0.941021 0.715218 -0.084383
Si 2.35732 0.96987 1.07545 -0.039893 -0.133753 1.044727
Si 1.75565 0.57573 5.99832 0.853133 -0.127056 0.525708
Si -2.05103 3.29147 1.19528 0.091054 -0.026416 0.403944
Si 3.22834 2.86996 5.8366 0.221289 -0.12987 0.108677
Si 1.12416 3.27651 1.06709 -0.523558 0.312982 0.644405
Si 0.78262 3.62969 6.07451 0.266074 -0.294985 -0.382701
Si -1.84225 3.90689 3.61103 -0.491818 -1.15257 -0.013769
Si 2.36931 1.1163 8.43471 -0.450061 0.17369 -0.778722
Si 0.45371 3.11255 3.67146 0.72805 -0.389004 -0.463373
Si -0.21826 1.91094 8.51196 0.39766 -0.597186 0.078567
Si 4.73694 0.7125 3.74267 -0.177792 0.292376 -0.436711
Si 1.25528 4.05192 8.39216 0.136855 -0.18069 0.440759
Si 2.29223 1.30853 3.75369 0.421732 1.094035 -0.596657
Si 3.65595 3.4731 8.4614 -0.12531 0.121657 -0.497394
16
Lattice="5.669927 0.000000 0.000000 -2.896526 4.560051 0.000000 0.301706 -0.004536 9.649823 " Properties=species:S:1:pos:R:3:forces:R:3 energy=-87.43836606 pbc="T T T"
Si 4.99997 1.06015 1.27326 -0.127328 0.099717 -0.669071
Si -0.21655 1.44548 5.94474 -0.24669 0.217441 0.146723
Si 1.763 1.40257 1.16531 0.570155 0.155739 -0.135959
Si 2.19427 0.91466 6.0068 -0.057768 0.349847 -0.286049
Si 3.46177 3.35193 1.16328 0.006637 -0.388647 0.341088
Si 3.5176 3.10885 5.98728 0.112969 -0.062913 -0.643112
Si 0.31348 3.74942 1.36466 0.283573 -0.136015 -0.910542
Si 1.12976 3.91534 5.93336 0.062629 -0.620261 0.706066
Si -1.60243 3.81665 3.6043 -1.42533 -1.251603 0.281018
Si 2.22135 0.84511 8.39561 0.324343 0.36339 0.509069
Si 0.661 3.15196 3.69405 0.899515 -0.703452 -0.12779
Si -0.33525 1.02579 8.43421 -0.326448 0.295419 -0.028625
Si 4.97714 0.71833 3.60633 -0.600615 0.349888 0.463251
Si 1.00427 3.40614 8.49393 0.052829 0.045149 -0.152529
Si 2.41499 1.25657 3.55168 0.556424 1.375939 0.050259
Si 3.77854 3.20775 8.35392 -0.084895 -0.089639 0.456205
16
Lattice="5.771910 0.000000 0.000000 -2.948624 4.642071 0.000000 0.307133 -0.004618 9.823390 " Properties=species:S:1:pos:R:3:forces:R:3 energy=-86.78776637 pbc="T T T"
Si 4.59764 0.75393 1.20241 0.422994 0.194752 -0.172455
Si 4.89908 0.71615 6.09747 0.463399 0.483484 0.240174
Si 2.2279 1.31922 1.0675 -0.436934 0.3189 0.230069
Si 2.62189 1.92842 6.12026 -0.064393 -0.55485 0.036327
Si -1.94674 3.81888 1.35644 0.046806 0.107178 -1.132698
Si -1.68178 3.9838 6.17012 -0.557523 0.130118 0.219064
Si 0.46717 3.24006 1.20586 0.437162 -0.211366 0.100744
Si 0.61281 3.37949 6.06017 0.421814 -0.176882 -0.062067
Si -2.00646 3.74109 3.64487 -0.781035 -1.144359 0.937107
Si 2.47201 1.01015 8.41345 0.044159 -0.655697 0.13344
Si 1.31039 2.79704 3.68796 -0.717504 0.702449 -0.332021
Si -0.67134 1.53142 8.55261 -0.390079 -0.384138 0.082823
Si 4.83102 1.27273 3.65187 0.730951 0.56676 -0.059351
Si 1.19342 3.09159 8.47967 -0.082096 0.494858 0.322276
Si 2.51453 0.80752 3.86693 0.141656 0.092873 0.01386
Si 3.61423 3.63952 8.77973 0.320625 0.035919 -0.557292
16
Lattice="5.733523 0.000000 0.000000 -2.929014 4.611198 0.000000 0.305090 -0.004587 9.758058 " Properties=species:S:1:pos:R:3:forces:R:3 energy=-86.45278062 pbc="T T T"
Si -0.84557 1.47575 1.38671 0.808863 0.269919 -0.087673
Si 4.81607 0.96504 5.81261 0.048118 -0.158948 1.03308
Si 2.5948 0.83269 1.21429 -0.588568 -0.242509 -0.667008
Si 2.37491 1.73928 6.1549 -0.209804 0.07815 -0.499421
Si 3.41914 3.5565 1.26426 0.067231 0.290434 0.0747
Si -1.87166 4.26769 6.13095 0.267348 -0.35385 0.159057
Si 0.97975 3.31786 1.14059 -0.51406 -0.33649 -0.318549
Si 0.57489 3.52185 5.88347 0.038253 -0.161908 1.522707
Si 4.03461 2.5984 4.27553 0.137009 0.433017 -0.550277
Si 2.53634 1.67037 8.53365 0.275351 -0.172673 0.744288
Si 0.62281 3.41908 3.60785 0.104425 0.044776 -1.379716
Si 4.90593 0.86427 8.45696 0.057005 -0.053386 0.073938
Si 5.6983 0.19753 3.5972 -0.076051 0.020925 -0.791481
Si 0.40096 2.93085 8.32896 0.70056 0.365771 0.156118
Si 2.08933 1.42746 3.42082 -0.433736 -0.145891 0.605329
Si -1.70803 4.00018 8.62736 -0.681946 0.122664 -0.07509
16
Lattice="5.513841 0.000000 0.000000 -2.777080 4.671975 0.000000 0.316336 0.147731 8.943731 " Properties=species:S:1:pos:R:3:forces:R:3 energy=-85.74908038 pbc="T T T"
Si 0.03982 1.55795 1.09478 0.019078 0.109647 0.091907
Si 0.14279 1.65744 5.55153 0.172281 0.017359 0.117822
Si -1.33484 3.91666 1.13938 0.054486 -0.083328 0.035323
Si -1.22842 3.97163 5.58834 0.12111 0.183144 -0.081674
Si 2.79598 1.5909 1.07506 -0.062433 0.086626 0.089231
Si 2.94639 1.66634 5.60207 -0.205366 -0.093599 -0.032618
Si 1.41205 3.93891 1.12095 -0.053017 -0.111411 5e-05
Si 1.58225 4.00174 5.66542 -0.109953 -0.091258 -0.166904
Si 1.47832 0.8127 3.33421 0.017928 0.081584 0.050855
Si 1.66168 0.87912 7.87591 -0.052369 0.169647 -0.163759
Si 0.11398 3.20474 3.39188 0.123102 0.025857 -0.113246
Si 0.25515 3.2565 7.8443 0.079848 -0.1852 -0.090801
Si 4.25116 0.85957 3.37655 -0.006468 -0.049952 -0.032246
Si 4.36859 0.89783 7.84728 0.104245 0.068914 -0.069808
Si 2.86101 3.15459 3.29062 -0.104304 -0.067028 0.155639
Si 3.0702 3.27212 7.78101 -0.098167 -0.061002 0.21023
16
Lattice="5.395439 0.000000 0.000000 -2.891806 4.839102 0.000000 0.145789 -0.222816 8.998201 " Properties=species:S:1:pos:R:3:forces:R:3 energy=-85.74132223 pbc="T T T"
Si -0.09455 1.59187 1.08938 0.081635 0.03385 0.112482
Si 0.02997 1.43672 5.6179 -0.110226 0.093922 0.059015
Si -1.52089 4.00551 1.13424 0.100715 0.080272 0.006433
Si -1.43763 3.85686 5.62139 0.089729 -0.061344 -0.0324
Si 2.63736 1.61403 1.11464 -0.11939 -0.081656 0.025115
Si 2.66574 1.46758 5.64326 0.075599 -0.010992 -0.012656
Si 1.21876 3.99756 1.10962 -0.114765 -0.011394 0.124559
Si 1.30609 3.90809 5.62471 -0.099886 0.002059 0.029028
Si 1.36384 0.7115 3.36663 0.0401 0.026618 -0.053986
Si 1.44829 0.54122 7.85895 0.065642 0.079464 0.095946
Si -0.04918 3.14158 3.41575 0.040156 -0.022303 -0.109581
Si -0.00658 2.98663 7.89304 0.013915 -0.040868 -0.110179
Si 4.05766 0.7208 3.38015 -0.026934 0.011751 -0.037356
Si 4.11284 0.57982 7.8896 -0.029106 0.035423 -0.09379
Si 2.64677 3.13449 3.36762 -0.006608 -0.037705 0.012627
Si 2.68025 3.05465 7.8695 -0.000577 -0.097096 -0.015256
16
Lattice="5.269189 0.000000 0.000000 -2.497491 4.395756 0.000000 -0.168423 0.389367 9.122984 " Properties=species:S:1:pos:R:3:forces:R:3 energy=-85.48152638 pbc="T T T"
Si 0.02351 1.52829 1.16065 -0.02104 0.194382 0.057473
Si -0.08775 1.6522 5.71788 -0.123733 0.302448 -0.067139
Si -1.22493 3.73333 1.13848 -0.083304 -0.234924 -0.081828
Si -1.28019 3.93715 5.74566 0.102425 -0.271365 -0.060941
Si 2.64622 1.45935 1.12959 0.049796 0.351902 0.063287
Si 2.55943 1.71308 5.70227 0.195822 0.049222 -0.025908
Si 1.42902 3.71435 1.11143 0.146909 -0.303778 0.170845
Si 1.32714 3.87483 5.67791 -0.082204 -0.034862 0.034086
Si 1.2944 0.78704 3.40829 -0.074127 0.536235 0.056876
Si 1.20181 1.09769 7.97548 -0.046705 -0.031282 0.031985
Si 0.00058 3.05109 3.42431 0.302412 -0.406577 0.037497
Si -0.0598 3.28233 8.0002 0.019402 -0.018953 -0.038309
Si 3.88364 0.90994 3.43064 -0.066266 0.155795 -0.048752
Si 3.82369 1.10459 8.05393 -0.002129 0.020801 -0.238069
Si 2.63479 3.13227 3.41898 -0.259078 -0.318069 0.037571
Si 2.57344 3.29531 7.94692 -0.05818 0.009026 0.071327
16
Lattice="5.180736 0.000000 0.000000 -2.513225 4.494136 0.000000 -0.185988 -0.221262 9.381229 " Properties=species:S:1:pos:R:3:forces:R:3 energy=-85.71254263 pbc="T T T"
Si -0.01338 1.52643 1.17446 0.29674 -0.238606 -0.00039
Si -0.0602 1.37188 5.7749 -0.623342 -0.040097 0.179885
Si -1.29755 3.68671 1.20465 -0.069754 0.344297 -0.091112
Si -1.31549 3.63956 5.86753 -0.144167 -0.353541 0.009639
Si 2.62476 1.44554 1.15364 -0.314887 -0.105266 -0.042487
Si 2.43601 1.31922 5.87183 0.651608 -0.014264 0.034013
Si 1.32039 3.71579 1.18524 0.046124 -0.061041 -0.076158
Si 1.27793 3.54459 5.85695 0.08845 0.378885 0.06985
Si 1.19418 0.65493 3.52122 0.173751 0.164623 -0.117041
Si 1.20145 0.56195 8.17375 0.044432 0.137824 0.131849
Si -0.03272 2.91896 3.54295 0.17531 -0.015038 -0.068076
Si -0.09915 2.80071 8.20962 0.282515 0.027372 -0.011796
Si 3.79964 0.67244 3.4952 -0.14204 0.026235 0.045502
Si 3.79086 0.5885 8.21056 -0.041328 -0.150474 -0.061245
Si 2.58778 2.93991 3.52211 -0.158111 -0.137508 -0.010202
Si 2.54187 2.83489 8.20143 -0.265301 0.0366 0.007768
16
Lattice="5.270370 0.000000 0.000000 -2.597254 4.701509 0.000000 0.125394 -0.112633 9.120634 " Properties=species:S:1:pos:R:3:forces:R:3 energy=-85.90694094 pbc="T T T"
Si 0.09786 1.51421 1.17051 -0.390768 0.084443 0.029656
Si 0.08451 1.51594 5.67388 -0.033317 -0.086064 0.045509
Si -1.26057 3.91368 1.11262 -0.006394 -0.25534 0.07595
Si -1.17332 3.88266 5.71092 -0.030163 0.01511 0.093285
Si 2.63025 1.51901 1.15739 0.411054 0.075434 -0.045855
Si 2.7106 1.56833 5.73064 0.04927 -0.055013 -0.031314
Si 1.36598 3.88523 1.1211 0.011456 0.10046 0.137803
Si 1.42918 3.87337 5.67358 0.053662 0.066359 0.101376
Si 1.39779 0.75607 3.42271 -0.092752 -0.083484 0.08743
Si 1.43128 0.76123 7.98835 0.021619 -0.232534 -0.109511
Si 0.05519 3.0892 3.43476 0.07233 0.107138 -0.104712
Si 0.14108 2.99451 7.99786 -0.091683 0.205558 -0.075232
Si 3.9954 0.78278 3.42908 0.077082 -0.163253 -0.037725
Si 4.03938 0.73507 7.98523 -0.02785 -0.121348 -0.006784
Si 2.72054 3.08933 3.4219 -0.095224 0.187642 -0.066038
Si 2.76885 3.08901 8.00906 0.071675 0.154891 -0.093839
16
Lattice="5.794221 0.000000 0.000000 -3.077522 4.912327 0.000000 0.030920 0.256892 9.191407 " Properties=species:S:1:pos:R:3:forces:R:3 energy=-85.97882852 pbc="T T T"
Si 1.40371 1.13149 0.67222 -0.179971 0.034495 -0.862412
Si 0.45479 2.25778 5.79859 -0.008246 0.888005 0.555414
Si 3.17306 3.98337 1.98946 -0.625512 0.829759 0.769397
Si -2.19076 4.92168 5.17853 -1.324236 -0.333781 0.226606
Si 3.5315 2.40201 0.43155 0.070046 -1.146187 -0.806262
Si 3.83618 1.20271 7.00402 -0.53573 0.480333 -0.336922
Si 4.19794 0.43384 1.69948 0.533003 -0.02726 -0.297448
Si 0.05341 4.65953 5.11513 0.901759 -0.786302 -0.002745
Si 0.79059 1.97068 2.83121 0.068666 0.171501 -0.015292
Si -1.39314 4.70059 7.89023 0.680034 0.75116 0.302474
Si -0.46498 4.02446 2.81277 0.640632 -0.029323 0.198831
Si -0.13166 2.59354 8.19379 0.440682 -0.117933 0.550568
Si 4.63401 1.38423 4.17881 -0.380602 0.277269 -0.149775
Si 1.40341 4.55914 8.60226 -0.256258 -0.414355 0.631214
Si 2.57644 2.81567 4.28484 0.243162 -0.113003 -0.382215
Si 2.65151 3.36486 6.95137 -0.267428 -0.464378 -0.381434
16
Lattice="5.847773 0.000000 0.000000 -3.105965 4.957727 0.000000 0.031206 0.259266 9.276356 " Properties=species:S:1:pos:R:3:forces:R:3 energy=-85.83387401 pbc="T T T"
Si 1.3475 1.15618 0.35462 -0.231221 -1.182621 -0.801488
Si -0.07665 2.76072 6.12954 0.147069 -0.920355 0.65989
Si -2.25559 4.45628 2.15759 -0.064633 0.113926 -0.379397
Si 1.4136 0.66906 5.51541 -0.558043 0.372438 0.181588
Si 3.29331 1.95264 1.18367 1.278371 0.217706 0.617854
Si 3.78202 1.23847 6.22302 0.093095 0.9401 0.770523
Si 1.38043 4.56448 1.38147 -0.559161 0.76955 -0.606835
Si 0.49449 4.50471 4.56255 0.468397 0.126151 0.002565
Si 1.42033 1.59638 3.2271 -0.054094 -0.07943 0.032907
Si -1.31675 4.48673 7.70434 0.473373 0.433467 0.803605
Si -0.14933 3.34153 2.67457 -0.276923 -0.662515 -0.344641
Si -0.61859 2.35322 8.91135 -0.645738 0.068111 -0.483851
Si 3.8514 1.95457 3.7041 0.009302 -0.028756 -0.583552
Si 1.05539 4.84542 8.23357 0.077341 0.492914 0.457805
Si 2.74222 3.72335 4.9138 0.045765 0.321435 0.356312
Si 2.5412 3.23072 7.43805 -0.202898 -0.982121 -0.683287
16
Lattice="5.896501 0.000000 0.000000 -3.131847 4.999039 0.000000 0.031466 0.261426 9.353654 " Properties=species:S:1:pos:R:3:forces:R:3 energy=-86.43091778 pbc="T T T"
Si 1.63901 1.20936 0.17802 0.339145 -0.042218 -0.096401
Si 0.57153 2.28115 5.9714 -0.013255 -0.225288 0.2657
Si -2.37445 4.81483 1.95522 0.461262 0.096223 0.300735
Si -1.62576 5.00559 5.93114 -0.052078 0.204079 0.380921
Si 3.87348 1.57864 1.2484 -0.228784 0.850038 -0.194958
Si 4.12662 1.58399 6.59488 0.221988 -0.189541 -0.449729
Si 1.27312 4.34117 1.46137 0.276049 -0.339043 -0.404514
Si 3.37739 0.21319 4.47411 0.41943 -0.398994 -0.019902
Si 0.8058 1.51518 3.64128 -0.841258 0.223029 -0.084362
Si -1.07312 4.4783 8.23138 0.234475 0.036166 -0.250344
Si -0.50043 3.36823 2.61758 -0.229287 0.043848 0.331407
Si -0.43244 2.16196 8.69922 -0.146622 0.855688 0.340208
Si 2.99899 2.32994 3.38853 0.442842 -0.788166 -0.388677
Si 1.39948 4.96591 8.42693 -0.764142 -0.110881 0.007862
Si 2.38849 4.04425 4.76553 -0.185709 0.722768 1.012402
Si 2.6147 3.33308 7.34901 0.065946 -0.937709 -0.750347
16
Lattice="5.875205 0.000000 0.000000 -3.120536 4.980985 0.000000 0.031353 0.260482 9.319872 " Properties=species:S:1:pos:R:3:forces:R:3 energy=-85.7374016 pbc="T T T"
Si -0.18433 1.13639 1.28126 -0.230678 -0.080418 -0.104934
Si 0.86372 1.30572 5.34967 0.2005 -0.654111 1.008738
Si -1.58416 2.94794 0.36987 -0.07662 -0.033456 0.107955
Si -0.4123 4.4556 5.95079 -0.411501 0.386903 -0.27056
Si 2.12348 1.56219 1.80862 0.080711 -0.028503 -0.259213
Si 4.16131 2.4809 6.49572 -0.285601 -0.076432 -0.613137
Si 1.17737 4.10829 1.46104 -0.546866 0.115954 0.219398
Si 1.97997 4.0647 5.55052 0.518788 0.376895 0.178776
Si 3.32776 3.76716 2.44051 0.331897 0.022155 0.236778
Si 0.28832 1.93402 7.78516 0.258024 -0.72517 -0.124236
Si -0.38625 4.37038 3.40954 0.313504 0.099375 -0.147645
Si 0.08385 4.549 8.50753 -0.351097 0.197019 -0.184348
Si -0.48838 1.8663 3.54439 -0.638825 0.382672 -0.116951
Si 2.68486 1.9936 8.33611 0.148341 -0.592258 0.534911
Si 2.92345 2.0782 4.27544 0.396437 -0.014451 -0.06914
Si 2.43492 4.43381 8.09719 0.292986 0.623825 -0.396392
16
Lattice="5.767808 0.000000 0.000000 -3.063493 4.889933 0.000000 0.030779 0.255721 9.149506 " Properties=species:S:1:pos:R:3:forces:R:3 energy=-85.86981976 pbc="T T T"
Si -0.40474 1.58884 1.58814 -0.232111 -0.731447 0.411839
Si 1.14176 0.8673 5.48936 -0.112274 1.340183 0.028709
Si -1.56583 3.11542 0.26449 0.20485 0.793447 -0.130466
Si -0.75136 3.86884 6.02793 0.814003 -1.169281 0.104922
Si 1.91784 1.92481 1.66268 0.303756 -0.143755 -0.298022
Si 3.58883 1.7347 6.27482 0.836824 0.055857 -0.405678
Si 1.26133 4.29509 1.29367 0.069282 -0.033186 0.152214
Si 1.84664 4.40153 5.17297 -0.568671 -0.567886 -0.494211
Si -2.13702 4.42514 2.29511 0.10477 -0.268857 -0.221365
Si 0.15334 1.63249 7.86399 0.225816 -0.161822 -0.493941
Si 0.1084 4.28419 3.42188 -0.48334 -0.009214 0.19715
Si 0.44089 4.36922 8.11983 -0.193163 -0.324727 0.525502
Si -0.74413 1.82117 4.04189 0.146624 0.549357 -0.380793
Si 2.63546 1.74718 8.44207 -0.782786 -0.324964 0.785431
Si 2.60204 2.13846 3.93588 -0.251456 0.384002 0.086219
Si 2.78511 3.97959 7.40387 -0.082123 0.612292 0.132489
16
Lattice="5.933005 0.000000 0.000000 -3.151235 5.029987 0.000000 0.031661 0.263045 9.411560 " Properties=species:S:1:pos:R:3:forces:R:3 energy=-85.50285849 pbc="T T T"
Si 5.04749 1.357 1.64915 0.512745 0.326216 0.11597
Si 1.8408 0.89709 5.29976 -0.637685 0.591328 0.084627
Si -1.76702 3.18401 0.12575 0.969708 0.645973 0.287482
Si -0.77365 3.94501 6.49924 0.269759 -1.042678 1.275871
Si 1.65414 1.80784 1.91473 -0.007957 0.093122 -0.629202
Si 3.94523 1.67344 6.48207 0.270485 0.166062 0.406815
Si 0.78757 4.27018 1.6443 -0.033421 -0.349574 0.457607
Si 2.21737 4.88841 5.00914 0.122566 -0.240934 0.67578
Si -2.21558 4.47065 2.12514 -0.000593 -0.028725 0.016413
Si 0.70931 1.74253 7.44186 0.231844 -0.100338 -0.101987
Si 0.04585 4.03294 4.22939 0.206462 0.569241 -0.743472
Si 0.51357 4.4192 8.63947 -0.687062 0.068197 -0.356932
Si -1.07086 1.98537 3.99394 0.954911 -0.497918 -0.438955
Si 2.81701 1.7382 8.90824 -1.165897 -0.873456 -0.381825
Si 2.7273 2.72865 3.96031 -1.001541 0.226926 -0.503252
Si 2.70191 4.37657 7.47536 -0.004322 0.446559 -0.164939
16
Lattice="5.884591 0.000000 0.000000 -3.125521 4.988942 0.000000 0.031403 0.260898 9.334761 " Properties=species:S:1:pos:R:3:forces:R:3 energy=-86.06601379 pbc="T T T"
Si -0.39679 1.13725 1.80677 0.412773 0.328646 -0.939961
Si 1.50699 1.63377 5.23444 -0.91133 -0.126419 -0.072795
Si -1.19362 2.88664 0.38209 -0.916676 -0.318797 -0.087829
Si -1.08427 3.47235 7.03072 -0.561659 0.194612 -0.47226
Si 1.86752 1.85994 1.6484 0.138569 -0.025622 0.455771
Si 3.70159 1.59373 6.0896 0.336331 -0.693637 0.007428
Si 1.16634 4.23293 1.31041 -0.611772 -0.946931 0.380594
Si 1.71655 4.40743 4.81006 -0.113271 0.381423 0.441878
Si -1.13131 4.34451 2.38233 0.300726 0.385077 -0.555408
Si 0.30346 1.54077 7.45808 0.892092 0.494016 -0.048847
Si -0.69229 4.37262 4.76214 0.343473 0.027967 0.294911
Si 0.28061 4.71032 8.46406 0.160935 1.024915 0.103989
Si -0.68935 1.73171 3.95814 0.107311 0.136389 1.512074
Si 2.4397 1.9827 8.70094 0.464034 0.018571 -0.425929
Si 3.05779 2.86997 3.5739 -0.319822 -0.356341 -0.408328
Si 2.28648 4.35273 7.17051 0.278285 -0.52387 -0.185288
16
Lattice="5.872958 0.000000 0.000000 -3.119342 4.979080 0.000000 0.031341 0.260383 9.316308 " Properties=species:S:1:pos:R:3:forces:R:3 energy=-86.08553109 pbc="T T T"
Si -0.30349 1.26971 1.59045 -0.496417 -0.639161 -0.223276
Si 1.31527 1.44501 4.88817 -0.727918 -1.094737 0.393619
Si -1.63655 2.90984 0.54076 -0.130191 0.374085 -0.004309
Si -1.13821 3.32973 7.32746 -0.292302 0.577217 -0.017059
Si 2.01419 1.75129 1.65919 0.151764 -0.725625 -0.754244
Si 3.40588 1.54512 6.1271 0.236395 -0.031517 0.29327
Si 1.33805 4.02965 1.44927 0.166457 0.973173 -0.44782
Si 1.65345 4.70633 4.93706 0.73103 -0.580063 -0.040591
Si -0.72414 4.45095 2.46624 -0.375606 -0.275027 -0.233224
Si 0.66303 1.79958 7.14283 -0.714579 -0.187588 -0.551259
Si -0.55463 4.06902 4.91789 -1.036941 0.053026 -0.115351
Si 0.51406 4.79721 8.50357 0.303065 -0.565768 -0.18087
Si -1.00674 1.74421 3.77859 0.13551 0.992599 0.345207
Si 2.41249 1.81812 8.54382 1.19315 0.145039 0.896126
Si 2.61136 2.82343 3.66006 1.131235 0.907181 0.116038
Si 2.54935 4.54702 7.1024 -0.274653 0.077166 0.523744
16
Lattice="5.901929 0.000000 0.000000 -3.134730 5.003641 0.000000 0.031495 0.261667 9.362264 " Properties=species:S:1:pos:R:3:forces:R:3 energy=-85.3284522 pbc="T T T"
Si -0.33388 1.11582 1.58314 0.616387 0.256257 -0.173416
Si 1.30033 1.33035 5.25967 0.131549 0.692779 0.404274
Si -1.53608 2.93462 0.62269 -0.345044 -0.764626 -1.47545
Si -0.94633 3.6266 7.39296 -0.594783 -0.093787 0.191344
Si 1.96083 2.16123 1.4621 0.1145 0.098078 0.230745
Si 3.83689 1.47458 6.37981 -0.07608 -0.056666 -0.944689
Si 0.89709 4.3832 1.42315 -0.417924 -0.670524 0.221612
Si 1.64383 4.15945 4.68727 0.481372 -0.60277 0.713775
Si -1.5334 4.55645 2.1694 0.976881 1.92582 -0.113234
Si 0.25742 1.58751 7.57274 0.990969 -0.206606 -0.382577
Si -0.6601 4.2726 5.11132 -0.674995 -0.163257 -0.306542
Si 0.53164 5.08469 8.50811 0.677822 -1.421011 -0.003391
Si -0.66027 1.29532 3.88265 -0.352454 0.767731 0.39024
Si 2.57052 2.03488 8.43032 -1.171822 1.532499 0.373544
Si 3.40595 2.93675 3.44206 -0.378317 -1.099433 0.828865
Si 2.44361 4.3142 7.07551 0.021938 -0.194483 0.044899
16
Lattice="5.633056 0.000000 0.000000 -2.991921 4.775691 0.000000 0.030060 0.249746 8.935750 " Properties=species:S:1:pos:R:3:forces:R:3 energy=-87.77705716 pbc="T T T"
Si 0.40447 1.71806 1.24701 1.182416 -0.427181 -0.555749
Si 0.56656 1.89638 5.49135 0.204718 -0.199939 -0.034066
Si -1.52733 3.03918 1.11244 0.274727 0.070184 0.342456
Si 2.87447 0.96487 5.54219 -0.05615 -0.28068 0.547233
Si 2.87946 0.52138 1.24538 -0.228343 0.453327 -0.353079
Si -1.39406 3.33114 5.60382 -0.371383 0.168719 0.411549
Si 1.92461 3.83425 1.06656 -0.971166 0.813644 0.102708
Si 1.91093 4.33647 5.46316 0.152153 -0.161394 0.740787
Si -0.23999 0.55641 3.23111 0.593298 -0.027923 0.248338
Si -0.87047 4.38406 7.95682 0.175463 0.218329 -0.644762
Si -0.78154 4.20703 3.36483 -1.239292 0.446798 0.102509
Si 0.18969 1.1859 7.80356 0.225911 -0.563552 0.229583
Si 3.41318 2.00802 3.44407 0.297938 -0.2843 -0.399748
Si 3.55404 1.99223 7.95617 -0.534715 -0.182852 -0.576129
Si 1.20853 2.99733 3.30942 0.543005 -0.131472 0.188714
Si 1.45709 3.36637 7.74822 -0.24858 0.088293 -0.350344
16
Lattice="5.649070 0.000000 0.000000 -3.000427 4.789267 0.000000 0.030146 0.250456 8.961152 " Properties=species:S:1:pos:R:3:forces:R:3 energy=-87.65747958 pbc="T T T"
Si 0.38558 1.84322 1.079 1.086155 -0.417447 0.028847
Si 0.72678 1.90303 5.44655 -0.621508 0.847352 1.297838
Si -1.69724 2.992 1.1909 1.537419 -1.121215 -0.093885
Si 2.75825 0.75742 5.62391 0.631166 -0.598296 0.300146
Si 2.83767 0.68267 1.14213 -0.02172 0.170651 0.170748
Si -1.38986 3.25612 5.68604 -0.213052 -0.077267 -0.312113
Si 2.08895 4.16383 1.17358 -2.099594 1.658698 -0.185454
Si 1.93052 4.30756 5.46015 0.120627 -0.139392 0.412235
Si 0.01416 0.72459 3.46975 -0.337743 -0.272963 -0.84488
Si -0.75261 4.64516 8.04824 -0.237448 -0.442912 -0.641011
Si -0.75303 4.51496 3.28433 0.021325 -0.44036 0.101375
Si 5.44033 0.51085 7.69655 0.537084 0.180512 0.289077
Si 3.46971 2.03458 3.50705 0.671433 -0.172953 0.025464
Si 3.60792 2.15242 7.78034 -0.047274 -0.06252 0.015496
Si 1.2834 2.96336 3.30854 -0.541051 0.565143 -0.531878
Si 1.31238 3.00201 7.89254 -0.485818 0.322969 -0.032004
16
Lattice="5.806768 0.000000 0.000000 -3.084186 4.922963 0.000000 0.030987 0.257448 9.211309 " Properties=species:S:1:pos:R:3:forces:R:3 energy=-85.39549421 pbc="T T T"
Si 5.08348 0.7112 1.05984 0.799738 -0.038015 -0.098436
Si 5.23943 0.5267 6.12547 0.482475 1.042592 0.436066
Si 3.37727 3.4301 1.14404 0.264269 0.235812 -0.58122
Si -1.64265 4.27359 5.50512 -0.147457 -0.086524 -0.095421
Si 2.70834 1.10449 1.13769 -0.469201 0.064073 -0.154969
Si 2.19081 1.81078 5.401 0.170895 -0.019385 -0.221982
Si -0.06151 3.50917 1.57939 0.165366 -0.584635 -0.221869
Si 0.72366 3.78935 5.61601 -0.438759 -1.172753 0.037763
Si 0.89064 1.42623 2.96378 0.118578 0.071428 -0.466269
Si 2.39842 1.14838 7.80394 0.642149 -0.347696 0.558243
Si 0.4752 4.96015 3.42201 -0.579618 0.834005 0.208405
Si 1.03452 3.84129 8.42416 0.354004 1.269909 0.115597
Si -1.09757 2.08224 4.37503 -0.643552 -0.002957 -0.095436
Si 0.08636 1.78555 8.0525 -1.164487 -0.747739 0.188744
Si 2.37662 3.63425 3.2471 0.576433 -0.326327 0.575681
Si -1.92653 3.54965 7.93661 -0.130832 -0.191786 -0.184898
16
Lattice="5.650195 0.000000 0.000000 -3.001025 4.790222 0.000000 0.030152 0.250506 8.962937 " Properties=species:S:1:pos:R:3:forces:R:3 energy=-87.91881874 pbc="T T T"
Si 4.5161 0.58804 1.04862 -0.190563 0.083658 0.573787
Si 4.51777 0.88247 5.61717 0.736468 -0.437635 -0.158223
Si -1.91725 4.36143 1.22152 -0.11997 -0.521653 0.330149
Si -1.93795 4.48176 5.4493 0.361052 -0.094176 0.303875
Si 2.34051 1.91914 1.03609 0.553567 0.051264 -0.317998
Si 2.37132 1.87713 5.61996 -0.567182 0.141572 0.193578
Si 0.1951 3.08149 1.21114 0.101341 0.395129 -0.848847
Si 0.26466 3.20665 5.762 -0.348059 -0.059268 -0.551049
Si 1.97518 0.87087 3.22281 -0.389757 -0.520655 0.358789
Si 1.63872 0.61059 7.96719 0.227527 0.166599 -0.540422
Si 0.93531 4.27867 3.53538 0.237376 -0.032372 -0.3066
Si 0.99037 4.33849 7.8663 -0.950179 0.550206 -0.104864
Si -0.18232 1.93317 3.21136 -1.107767 -0.090309 1.0131
Si -0.46871 1.92323 7.83277 0.144232 0.174849 0.281252
Si 3.0739 3.03704 3.50205 0.476581 0.353611 -0.373668
Si 2.95452 3.07171 7.70019 0.835334 -0.160819 0.147141
16
Lattice="5.612470 0.000000 0.000000 -2.980987 4.758238 0.000000 0.029950 0.248834 8.903094 " Properties=species:S:1:pos:R:3:forces:R:3 energy=-87.67789189 pbc="T T T"
Si 4.54968 0.39134 1.21574 -0.444042 0.217195 -0.708507
Si 4.58768 0.7282 5.4829 -0.054406 0.428744 -0.135657
Si -1.80263 4.24894 1.06657 0.435748 0.305214 -0.778849
Si -1.73432 4.42435 5.63376 -1.172893 -0.207716 -0.337128
Si 2.38612 1.67071 1.21609 0.018798 -0.072702 -0.180014
Si 2.528 2.23311 5.61008 0.222359 -0.263007 -0.327389
Si 0.34137 2.97237 1.05768 -0.248118 0.158661 0.101753
Si 0.22524 3.14391 5.67439 0.449274 -0.682185 0.366438
Si 1.59537 0.78083 3.50212 0.303554 0.007399 -0.161667
Si 1.72101 0.87256 7.59503 1.101876 -0.150336 0.648199
Si 0.67671 3.9254 3.48184 0.032868 0.524812 -0.537185
Si 0.96417 4.54193 7.67896 0.237878 -0.174889 0.399173
Si -0.77801 1.6786 3.1836 0.671375 0.402148 0.521651
Si -0.25784 2.00273 7.91085 -1.296705 0.413573 0.094641
Si 3.01296 3.34851 3.05105 -0.150509 -0.795146 1.192553
Si 3.10966 3.22826 7.96382 -0.107056 -0.111767 -0.158013
16
Lattice="5.622912 0.000000 0.000000 -2.986534 4.767091 0.000000 0.030006 0.249297 8.919658 " Properties=species:S:1:pos:R:3:forces:R:3 energy=-88.12132524 pbc="T T T"
Si 4.71058 0.82976 1.01696 -0.371596 -0.157931 0.392465
Si 4.66085 0.79093 5.52188 -0.128649 -0.293629 0.29837
Si -1.94519 4.15257 1.08014 0.182129 -0.11859 0.18234
Si -1.79281 4.24107 5.5881 -0.609085 0.42071 -0.003791
Si 2.42308 1.82598 1.08388 0.042213 0.138627 0.263538
Si 2.42001 1.8271 5.64554 -0.079751 0.005352 -0.285482
Si 0.34786 3.14772 1.32624 -0.14899 0.01647 -0.89754
Si 0.33101 3.13916 5.60198 0.186259 0.003794 -0.226616
Si 1.63447 0.48443 3.34768 -0.104586 0.454704 -0.23145
Si 1.69248 0.878 7.90614 -0.059178 -0.21375 -0.200912
Si 0.95344 4.49416 3.3017 0.302977 -0.288414 0.143029
Si 0.86941 4.33962 7.8474 -0.65965 0.424878 0.073562
Si -0.38207 2.00996 3.34946 -0.060333 -0.406185 0.286533
Si -0.60782 1.98886 7.68964 0.76849 -0.139409 0.090871
Si 2.92475 2.90392 3.42423 0.12458 0.281181 -0.081316
Si 2.92449 3.2132 7.72617 0.61517 -0.127808 0.196398
16
Lattice="5.630731 0.000000 0.000000 -2.990686 4.773720 0.000000 0.030048 0.249643 8.932061 " Properties=species:S:1:pos:R:3:forces:R:3 energy=-87.69834895 pbc="T T T"
Si 4.61259 0.80943 1.23645 -0.715531 0.025718 -0.291791
Si 4.55597 0.75278 5.57787 0.122964 0.690932 -0.242071
Si -2.22862 4.03786 1.10497 0.619825 -0.552724 0.297143
Si -1.87462 4.27921 5.5329 -0.785966 0.732621 -0.190148
Si 2.26397 1.73169 0.99607 0.350439 0.673473 0.134795
Si 2.15719 1.86895 5.72314 0.847381 -0.457994 -0.31787
Si 0.14025 3.21994 1.18683 0.538939 -0.149403 -0.554316
Si 0.21523 3.27678 5.62841 0.506112 -0.5978 0.206228
Si 1.85536 0.63199 3.10035 -0.530707 0.245327 0.535088
Si 1.69567 0.73583 7.97558 0.547356 -0.334738 -0.410743
Si 0.95279 4.36808 3.55762 0.536069 -0.441584 -1.028888
Si 1.07094 4.53663 7.71072 -0.574489 -0.470934 0.794505
Si -0.20386 1.99264 3.29068 -0.29489 -0.159124 0.457692
Si -0.34846 1.97649 7.74132 -0.256596 0.190998 0.548613
Si 3.15845 2.94283 3.51636 -0.456142 0.321853 -0.111319
Si 3.17116 3.16139 7.6772 -0.454764 0.283379 0.173082
16
Lattice="5.664247 0.000000 0.000000 -3.008488 4.802135 0.000000 0.030227 0.251129 8.985228 " Properties=species:S:1:pos:R:3:forces:R:3 energy=-87.34825149 pbc="T T T"
Si 1.24541 3.28454 0.95991 0.287021 -0.220354 -0.307828
Si 4.05857 1.35134 5.88199 -0.122511 -0.840204 0.386057
Si 1.06501 0.93524 1.51414 0.152705 -0.17367 -0.211534
Si -1.40871 3.58352 5.19903 0.495269 0.262806 0.397703
Si 4.05525 0.88995 0.85844 -0.01022 -0.168 0.156035
Si 1.16815 1.1235 5.41222 -0.348321 0.51921 0.398973